 Gaussian 16, Revision C.01,
 Gaussian 16:  ES64L-G16RevC.01  3-Jul-2019

 -----------------------------------------
 # opt freq=noraman m062x def2tzvp pop=nbo
 -----------------------------------------

 ------------
 Structure697
 ------------
 Symbolic Z-matrix:
 Charge =  0 Multiplicity = 1

 SCF Done:  E(RM062X) =  -616.897230234     A.U. after   27 cycles
 SCF Done:  E(RM062X) =  -616.900343407     A.U. after   14 cycles
 SCF Done:  E(RM062X) =  -616.900485986     A.U. after   13 cycles
 SCF Done:  E(RM062X) =  -616.900598942     A.U. after   13 cycles
 SCF Done:  E(RM062X) =  -616.900606752     A.U. after    8 cycles
 SCF Done:  E(RM062X) =  -616.900607118     A.U. after    7 cycles
 Optimization completed.
    -- Stationary point found.
 Normal termination of Gaussian 16 at Tue Oct 31 19:35:18 2023.

 --------------------------------------------------------------------
 #N Geom=AllCheck Guess=TCheck SCRF=Check GenChk RM062X/def2TZVP Freq
 --------------------------------------------------------------------

 Structure from the checkpoint file:  "1naphth_idp_1_1_m062x.chk"
 ------------
 Structure697
 ------------
 Charge =  0 Multiplicity = 1

                         Standard orientation:
 ---------------------------------------------------------------------
 Center     Atomic      Atomic             Coordinates (Angstroms)
 Number     Number       Type             X           Y           Z
 ---------------------------------------------------------------------
      1          6           0       -0.074283    0.743016    0.057966
      2          6           0        0.149891    2.090819    0.190007
      3          6           0        1.455059    2.617888    0.263187
      4          6           0       -1.473085    0.245539    0.029085
      5          6           0       -2.381081    0.754350   -0.897654
      6          6           0       -3.701396    0.326800   -0.905457
      7          6           0       -4.134236   -0.614402    0.017218
      8          6           0       -3.239313   -1.124684    0.948664
      9          6           0       -1.919914   -0.699260    0.953513
     10          1           0       -0.699789    2.758191    0.266698
     11          1           0        1.592731    3.685115    0.378370
     12          1           0       -2.040603    1.482631   -1.623606
     13          1           0       -4.391576    0.727720   -1.636558
     14          1           0       -5.163597   -0.948249    0.012366
     15          1           0       -3.571487   -1.852164    1.678106
     16          1           0       -1.226052   -1.089380    1.688341
     17          6           0        2.533615    1.784633    0.206305
     18          1           0        3.541486    2.176195    0.273653
     19          6           0        1.041529   -0.145872   -0.037635
     20          6           0        2.355084    0.389278    0.049715
     21          6           0        3.466918   -0.483875   -0.037736
     22          6           0        3.293795   -1.825008   -0.223313
     23          6           0        1.992039   -2.355604   -0.343569
     24          6           0        0.898442   -1.540704   -0.254306
     25          1           0        4.461838   -0.061674    0.039310
     26          1           0        4.151065   -2.482080   -0.290595
     27          1           0        1.860409   -3.416054   -0.515382
     28          1           0       -0.092808   -1.957740   -0.366636
 ---------------------------------------------------------------------

 SCF Done:  E(RM062X) =  -616.900607118     A.U. after    1 cycles

 The electronic state is 1-A.
 Alpha  occ. eigenvalues --  -10.55439 -10.55354 -10.55273 -10.55118 -10.54343
 Alpha  occ. eigenvalues --  -10.54320 -10.54293 -10.54289 -10.54245 -10.54228
 Alpha  occ. eigenvalues --  -10.54214 -10.54197 -10.54186 -10.54164 -10.54139
 Alpha  occ. eigenvalues --  -10.54038  -0.99050  -0.96566  -0.92846  -0.88965
 Alpha  occ. eigenvalues --   -0.84798  -0.84398  -0.83856  -0.80755  -0.71843
 Alpha  occ. eigenvalues --   -0.70441  -0.69802  -0.68590  -0.65720  -0.60445
 Alpha  occ. eigenvalues --   -0.58856  -0.57791  -0.56720  -0.52975  -0.52668
 Alpha  occ. eigenvalues --   -0.51185  -0.50577  -0.49021  -0.48594  -0.48223
 Alpha  occ. eigenvalues --   -0.46799  -0.46533  -0.44225  -0.43787  -0.41719
 Alpha  occ. eigenvalues --   -0.40760  -0.39836  -0.39344  -0.38133  -0.34997
 Alpha  occ. eigenvalues --   -0.31207  -0.30866  -0.29926  -0.26367
 Alpha virt. eigenvalues --   -0.01924   0.00955   0.01590   0.02295   0.06188
 Alpha virt. eigenvalues --    0.08308   0.08478   0.09437   0.10399   0.10806
 Alpha virt. eigenvalues --    0.11688   0.12486   0.12936   0.13312   0.13724

 Mulliken charges:
               1
     1  C    0.101508
     2  C   -0.200281
     3  C   -0.143137
     4  C    0.045603
     5  C   -0.197422
     6  C   -0.145967
     7  C   -0.150314
     8  C   -0.123728
     9  C   -0.264646
    10  H    0.165154
    11  H    0.141831
    12  H    0.168832
    13  H    0.143546
    14  H    0.143453
    15  H    0.144754
    16  H    0.187375
    17  C   -0.205430
    18  H    0.135292
    19  C    0.052326
    20  C    0.121714
    21  C   -0.181526
    22  C   -0.148794
    23  C   -0.144258
    24  C   -0.262696
    25  H    0.134528
    26  H    0.141800
    27  H    0.143075
    28  H    0.197409
 Sum of Mulliken charges =  -0.00000

 Dipole moment (field-independent basis, Debye):
    X=             -0.0998    Y=             -0.0533    Z=             -0.0097  Tot=              0.1136
 Quadrupole moment (field-independent basis, Debye-Ang):
   XX=            -82.0683   YY=            -85.5894   ZZ=            -96.5975
   XY=              1.1232   XZ=              1.2632   YZ=             -1.9563

  Exact polarizability:     240.265      -0.979     194.390       4.429      -4.209     111.506
 Approx polarizability:     284.220      -1.940     274.922       7.630      -8.739     163.019

 Summary of Natural Population Analysis:

                                       Natural Population
                Natural  -----------------------------------------------
    Atom  No    Charge         Core      Valence    Rydberg      Total
 -----------------------------------------------------------------------
      C    1   -0.02104      1.99905     4.00097    0.02103     6.02104
      C    2   -0.19612      1.99913     4.17971    0.01728     6.19612
      C    3   -0.20652      1.99922     4.18883    0.01847     6.20652
      C    4   -0.05181      1.99909     4.03171    0.02101     6.05181
      C    5   -0.19867      1.99914     4.18146    0.01808     6.19867
      C    6   -0.20534      1.99923     4.18770    0.01841     6.20534
      C    7   -0.21295      1.99922     4.19548    0.01824     6.21295
      C    8   -0.20610      1.99923     4.18896    0.01792     6.20610
      C    9   -0.20137      1.99912     4.18455    0.01770     6.20137
      H   10    0.21661      0.00000     0.78225    0.00114     0.78339
      H   11    0.21488      0.00000     0.78411    0.00101     0.78512
      H   12    0.21738      0.00000     0.78148    0.00114     0.78262
      H   13    0.21405      0.00000     0.78493    0.00102     0.78595
      H   14    0.21375      0.00000     0.78526    0.00099     0.78625
      H   15    0.21427      0.00000     0.78468    0.00105     0.78573
      H   16    0.21774      0.00000     0.78094    0.00132     0.78226
      C   17   -0.18003      1.99916     4.16356    0.01731     6.18003
      H   18    0.21098      0.00000     0.78784    0.00117     0.78902
      C   19   -0.05207      1.99906     4.03437    0.01864     6.05207
      C   20   -0.06064      1.99913     4.04149    0.02002     6.06064
      C   21   -0.17886      1.99916     4.16222    0.01748     6.17886
      C   22   -0.21027      1.99921     4.19265    0.01840     6.21027
      C   23   -0.20794      1.99922     4.19093    0.01779     6.20794
      C   24   -0.19007      1.99916     4.17328    0.01763     6.19007
      H   25    0.21048      0.00000     0.78834    0.00118     0.78952
      H   26    0.21398      0.00000     0.78502    0.00101     0.78602
      H   27    0.21361      0.00000     0.78535    0.00103     0.78639
      H   28    0.22210      0.00000     0.77651    0.00139     0.77790
 =======================================================================
   * Total *   -0.00000     31.98654    75.70459    0.30887   108.00000

                      1                      2                      3
                      A                      A                      A
 Frequencies --     50.6380                76.1762                88.5879
 Red. masses --      4.0091                 4.1211                 4.5649
 Frc consts  --      0.0061                 0.0141                 0.0211
 IR Inten    --      0.0627                 0.2511                 0.2998

                      4                      5                      6
                      A                      A                      A
 Frequencies --    169.2458               187.1299               251.7089
 Red. masses --      4.1057                 3.8802                 4.8943
 Frc consts  --      0.0693                 0.0801                 0.1827
 IR Inten    --      2.4836                 0.1049                 0.3711

                      7                      8                      9
                      A                      A                      A
 Frequencies --    295.4103               317.3716               412.2592
 Red. masses --      5.0223                 4.2158                 3.7814
 Frc consts  --      0.2582                 0.2502                 0.3787
 IR Inten    --      0.4767                 0.8105                 2.0021

                     10                     11                     12
                      A                      A                      A
 Frequencies --    417.9728               447.7937               481.0978
 Red. masses --      3.0007                 3.2554                 3.3594
 Frc consts  --      0.3089                 0.3846                 0.4581
 IR Inten    --      0.6053                 6.1418                 0.1897

                     13                     14                     15
                      A                      A                      A
 Frequencies --    505.6589               531.2640               571.9565
 Red. masses --      4.8572                 7.0044                 4.2203
 Frc consts  --      0.7317                 1.1648                 0.8134
 IR Inten    --      1.3644                 0.4650                 3.1387

                     16                     17                     18
                      A                      A                      A
 Frequencies --    590.0627               629.7808               632.1671
 Red. masses --      3.1980                 6.6453                 6.1337
 Frc consts  --      0.6560                 1.5529                 1.4442
 IR Inten    --     10.6097                 5.6982                 2.7647

                     19                     20                     21
                      A                      A                      A
 Frequencies --    673.8818               716.4488               726.6013
 Red. masses --      3.4308                 5.4732                 1.6671
 Frc consts  --      0.9179                 1.6552                 0.5186
 IR Inten    --      3.0702                 2.2672                40.6131

                     22                     23                     24
                      A                      A                      A
 Frequencies --    759.0595               791.2492               809.1804
 Red. masses --      1.2664                 2.3060                 4.6316
 Frc consts  --      0.4299                 0.8506                 1.7868
 IR Inten    --      1.8627                18.3173                 3.8508

                     25                     26                     27
                      A                      A                      A
 Frequencies --    811.1123               836.2824               854.5864
 Red. masses --      1.6067                 1.7722                 4.7140
 Frc consts  --      0.6228                 0.7302                 2.0284
 IR Inten    --     83.6618                17.0600                 0.1591

                     28                     29                     30
                      A                      A                      A
 Frequencies --    879.3551               904.5268               942.2604
 Red. masses --      1.2531                 1.8551                 1.3989
 Frc consts  --      0.5709                 0.8943                 0.7318
 IR Inten    --      0.1597                 1.7112                 0.1884

                     31                     32                     33
                      A                      A                      A
 Frequencies --    958.9426               982.6578               989.9193
 Red. masses --      1.4986                 5.4132                 1.3440
 Frc consts  --      0.8120                 3.0797                 0.7760
 IR Inten    --      1.7017                 3.9748                 0.2414

                     34                     35                     36
                      A                      A                      A
 Frequencies --   1001.5433              1003.2469              1014.0779
 Red. masses --      1.3433                 1.3558                 1.3178
 Frc consts  --      0.7939                 0.8040                 0.7984
 IR Inten    --      0.7491                 0.3076                 0.0343

                     37                     38                     39
                      A                      A                      A
 Frequencies --   1018.3339              1022.9590              1053.7146
 Red. masses --      1.2933                 5.7405                 2.7092
 Frc consts  --      0.7902                 3.5393                 1.7723
 IR Inten    --      0.1179                 0.4102                 5.5743

                     40                     41                     42
                      A                      A                      A
 Frequencies --   1064.9066              1089.9623              1111.0546
 Red. masses --      2.1029                 2.0524                 1.5181
 Frc consts  --      1.4050                 1.4366                 1.1042
 IR Inten    --      5.5879                 1.1576                 4.6550

                     43                     44                     45
                      A                      A                      A
 Frequencies --   1147.4267              1167.6195              1176.3119
 Red. masses --      1.9020                 1.3025                 1.1531
 Frc consts  --      1.4754                 1.0462                 0.9400
 IR Inten    --      1.7419                 0.6883                 0.0207

                     46                     47                     48
                      A                      A                      A
 Frequencies --   1190.4159              1205.9764              1215.8678
 Red. masses --      1.1451                 1.1176                 1.5469
 Frc consts  --      0.9561                 0.9577                 1.3474
 IR Inten    --      1.2422                 0.4821                 0.6619

                     49                     50                     51
                      A                      A                      A
 Frequencies --   1235.2095              1280.6513              1304.1945
 Red. masses --      2.0243                 1.5995                 4.1731
 Frc consts  --      1.8197                 1.5456                 4.1821
 IR Inten    --      1.0919                 1.6287                 0.4563

                     52                     53                     54
                      A                      A                      A
 Frequencies --   1324.2417              1350.5170              1375.6891
 Red. masses --      2.2537                 1.5023                 2.6464
 Frc consts  --      2.3286                 1.6144                 2.9508
 IR Inten    --      0.1148                 1.4813                 2.7256

                     55                     56                     57
                      A                      A                      A
 Frequencies --   1415.7614              1435.9798              1476.0364
 Red. masses --      7.5282                 2.1669                 2.2066
 Frc consts  --      8.8904                 2.6326                 2.8325
 IR Inten    --      0.0302                18.4143                 3.2974

                     58                     59                     60
                      A                      A                      A
 Frequencies --   1493.1796              1508.2756              1543.4724
 Red. masses --      2.3402                 2.5502                 2.5672
 Frc consts  --      3.0742                 3.4181                 3.6034
 IR Inten    --      6.2517                 1.2230                10.0883

                     61                     62                     63
                      A                      A                      A
 Frequencies --   1568.1871              1646.7343              1656.4395
 Red. masses --      3.8903                 5.8717                 7.4164
 Frc consts  --      5.6368                 9.3812                11.9894
 IR Inten    --      7.1127                 2.5723                 1.9739

                     64                     65                     66
                      A                      A                      A
 Frequencies --   1671.7274              1678.3800              1701.0843
 Red. masses --      5.6030                 6.0379                 6.4267
 Frc consts  --      9.2258                10.0212                10.9570
 IR Inten    --      6.2217                 3.3745                 0.0891

                     67                     68                     69
                      A                      A                      A
 Frequencies --   3197.9141              3198.1154              3199.0932
 Red. masses --      1.0862                 1.0865                 1.0863
 Frc consts  --      6.5450                 6.5474                 6.5503
 IR Inten    --      4.9506                 0.2176                 0.0153

                     70                     71                     72
                      A                      A                      A
 Frequencies --   3201.3244              3206.6361              3209.3286
 Red. masses --      1.0882                 1.0911                 1.0897
 Frc consts  --      6.5707                 6.6103                 6.6129
 IR Inten    --      0.0587                 8.1297                 7.6644

                     73                     74                     75
                      A                      A                      A
 Frequencies --   3211.6159              3217.7569              3223.1685
 Red. masses --      1.0913                 1.0947                 1.0970
 Frc consts  --      6.6322                 6.6782                 6.7144
 IR Inten    --      2.9592                13.2035                13.5543

                     76                     77                     78
                      A                      A                      A
 Frequencies --   3223.8467              3229.6587              3236.1664
 Red. masses --      1.0952                 1.0983                 1.0947
 Frc consts  --      6.7064                 6.7497                 6.7546
 IR Inten    --     12.0620                11.4351                 5.0116

 - Thermochemistry -
 -------------------
 Temperature   298.150 Kelvin.  Pressure   1.00000 Atm.
 Atom     1 has atomic number  6 and mass  12.00000

 Molecular mass:   204.09390 amu.
 Principal axes and moments of inertia in atomic units:
                           1         2         3
     Eigenvalues --  1670.851524738.876205997.42952
           X            1.00000   0.00178   0.00147
           Y           -0.00177   0.99997  -0.00741
           Z           -0.00148   0.00741   0.99997
 This molecule is an asymmetric top.
 Rotational symmetry number  1.
 Warning -- assumption of classical behavior for rotation
           may cause significant error
 Rotational temperatures (Kelvin)      0.05184     0.01828     0.01444
 Rotational constants (GHZ):           1.08013     0.38084     0.30092
 Zero-point vibrational energy     604091.1 (Joules/Mol)
                                  144.38124 (Kcal/Mol)
 Warning -- explicit consideration of  16 degrees of freedom as
           vibrations may cause significant error
 Vibrational temperatures:     72.86   109.60   127.46   243.51   269.24
          (Kelvin)            362.15   425.03   456.63   593.15   601.37
                              644.28   692.19   727.53   764.37   822.92
                              848.97   906.11   909.55   969.57  1030.81
                             1045.42  1092.12  1138.43  1164.23  1167.01
                             1203.22  1229.56  1265.20  1301.41  1355.70
                             1379.70  1413.83  1424.27  1441.00  1443.45
                             1459.03  1465.16  1471.81  1516.06  1532.16
                             1568.21  1598.56  1650.89  1679.94  1692.45
                             1712.74  1735.13  1749.36  1777.19  1842.57
                             1876.45  1905.29  1943.09  1979.31  2036.96
                             2066.05  2123.69  2148.35  2170.07  2220.71
                             2256.27  2369.28  2383.25  2405.24  2414.81
                             2447.48  4601.09  4601.37  4602.78  4605.99
                             4613.63  4617.51  4620.80  4629.63  4637.42
                             4638.40  4646.76  4656.12

 Zero-point correction=                           0.230086 (Hartree/Particle)
 Thermal correction to Energy=                    0.241507
 Thermal correction to Enthalpy=                  0.242452
 Thermal correction to Gibbs Free Energy=         0.192026
 Sum of electronic and zero-point Energies=           -616.670521
 Sum of electronic and thermal Energies=              -616.659100
 Sum of electronic and thermal Enthalpies=            -616.658156
 Sum of electronic and thermal Free Energies=         -616.708581

                     E (Thermal)             CV                S
                      KCal/Mol        Cal/Mol-Kelvin    Cal/Mol-Kelvin
 Total                  151.548             47.584            106.129
 Electronic               0.000              0.000              0.000
 Translational            0.889              2.981             41.845
 Rotational               0.889              2.981             32.229
 Vibrational            149.771             41.623             32.056
 Vibration     1          0.595              1.977              4.792
 Vibration     2          0.599              1.965              3.987
 Vibration     3          0.601              1.957              3.691
 Vibration     4          0.625              1.880              2.444
 Vibration     5          0.632              1.857              2.256
 Vibration     6          0.664              1.760              1.719
 Vibration     7          0.690              1.682              1.443
 Vibration     8          0.704              1.640              1.324
 Vibration     9          0.776              1.444              0.919
 Vibration    10          0.781              1.431              0.899
 Vibration    11          0.807              1.366              0.802
 Vibration    12          0.837              1.292              0.707
 Vibration    13          0.861              1.237              0.644
 Vibration    14          0.886              1.181              0.584
 Vibration    15          0.928              1.092              0.500
 Vibration    16          0.947              1.053              0.467

 Optimization completed.
    -- Stationary point found.
 Normal termination of Gaussian 16 at Tue Oct 31 20:49:47 2023.
