 Gaussian 16, Revision C.01,
 Gaussian 16:  ES64L-G16RevC.01  3-Jul-2019

 -----------------------------------------
 # opt freq=noraman m062x def2tzvp pop=nbo
 -----------------------------------------

 ------------
 Structure697
 ------------
 Symbolic Z-matrix:
 Charge =  0 Multiplicity = 1

 SCF Done:  E(RM062X) =  -616.899547267     A.U. after   14 cycles
 SCF Done:  E(RM062X) =  -616.902847993     A.U. after   12 cycles
 SCF Done:  E(RM062X) =  -616.903136730     A.U. after   11 cycles
 SCF Done:  E(RM062X) =  -616.903159895     A.U. after   10 cycles
 SCF Done:  E(RM062X) =  -616.903161103     A.U. after    7 cycles
 SCF Done:  E(RM062X) =  -616.903161188     A.U. after    6 cycles
 Optimization completed.
    -- Stationary point found.
 Normal termination of Gaussian 16 at Tue Oct 31 19:37:14 2023.

 --------------------------------------------------------------------
 #N Geom=AllCheck Guess=TCheck SCRF=Check GenChk RM062X/def2TZVP Freq
 --------------------------------------------------------------------

 Structure from the checkpoint file:  "2naphth_idp_1_1_m062x.chk"
 ------------
 Structure697
 ------------
 Charge =  0 Multiplicity = 1

                         Standard orientation:
 ---------------------------------------------------------------------
 Center     Atomic      Atomic             Coordinates (Angstroms)
 Number     Number       Type             X           Y           Z
 ---------------------------------------------------------------------
      1          6           0        0.498596    0.278889   -0.064515
      2          6           0       -0.012563    1.581053   -0.310589
      3          6           0       -1.355726    1.814227   -0.349160
      4          6           0       -0.387177   -0.749085    0.138513
      5          6           0        1.960907    0.049346   -0.025277
      6          6           0        2.813788    0.986875    0.558227
      7          6           0        4.182110    0.768428    0.606574
      8          6           0        4.723644   -0.390513    0.067924
      9          6           0        3.885984   -1.328810   -0.519310
     10          6           0        2.517799   -1.110140   -0.565763
     11          1           0        0.682339    2.390621   -0.495046
     12          1           0       -1.732463    2.810213   -0.549778
     13          1           0       -0.018533   -1.745581    0.354145
     14          1           0        2.396898    1.883182    1.000646
     15          1           0        4.826892    1.502660    1.072142
     16          1           0        5.791743   -0.560375    0.103681
     17          1           0        4.300447   -2.230666   -0.951170
     18          1           0        1.872135   -1.833487   -1.048060
     19          6           0       -2.282876    0.764461   -0.140235
     20          6           0       -1.785468   -0.539513    0.107521
     21          6           0       -2.706737   -1.594014    0.323460
     22          6           0       -4.052447   -1.362894    0.288779
     23          6           0       -4.547085   -0.063433    0.037587
     24          6           0       -3.682333    0.973454   -0.171359
     25          1           0       -2.323273   -2.588964    0.516021
     26          1           0       -4.747453   -2.175885    0.454029
     27          1           0       -5.615660    0.105859    0.012483
     28          1           0       -4.055565    1.972436   -0.363356
 ---------------------------------------------------------------------

 SCF Done:  E(RM062X) =  -616.903161188     A.U. after    1 cycles

 The electronic state is 1-A.
 Alpha  occ. eigenvalues --  -10.55412 -10.55328 -10.55192 -10.55094 -10.54498
 Alpha  occ. eigenvalues --  -10.54419 -10.54403 -10.54373 -10.54359 -10.54337
 Alpha  occ. eigenvalues --  -10.54322 -10.54320 -10.54269 -10.54249 -10.54227
 Alpha  occ. eigenvalues --  -10.54165  -0.99001  -0.96864  -0.93059  -0.88087
 Alpha  occ. eigenvalues --   -0.86490  -0.84697  -0.82799  -0.80966  -0.72320
 Alpha  occ. eigenvalues --   -0.71004  -0.69121  -0.67769  -0.66783  -0.60729
 Alpha  occ. eigenvalues --   -0.59206  -0.58177  -0.55839  -0.52742  -0.52512
 Alpha  occ. eigenvalues --   -0.51499  -0.50546  -0.49173  -0.48598  -0.48552
 Alpha  occ. eigenvalues --   -0.47097  -0.46887  -0.44539  -0.43800  -0.41589
 Alpha  occ. eigenvalues --   -0.40651  -0.39863  -0.39251  -0.38711  -0.35155
 Alpha  occ. eigenvalues --   -0.32332  -0.31179  -0.28744  -0.26503
 Alpha virt. eigenvalues --   -0.02227  -0.00053   0.01929   0.03763   0.05252
 Alpha virt. eigenvalues --    0.08243   0.08497   0.09025   0.10013   0.10730
 Alpha virt. eigenvalues --    0.12304   0.12540   0.13217   0.13496   0.14407

 Mulliken charges:
               1
     1  C    0.104566
     2  C   -0.215526
     3  C   -0.193143
     4  C   -0.259118
     5  C    0.116714
     6  C   -0.216470
     7  C   -0.151619
     8  C   -0.149417
     9  C   -0.149726
    10  C   -0.216402
    11  H    0.165780
    12  H    0.139446
    13  H    0.170672
    14  H    0.166581
    15  H    0.143280
    16  H    0.142876
    17  H    0.143245
    18  H    0.167299
    19  C    0.104284
    20  C    0.119120
    21  C   -0.212793
    22  C   -0.140333
    23  C   -0.144706
    24  C   -0.192561
    25  H    0.136318
    26  H    0.142695
    27  H    0.142524
    28  H    0.136415
 Sum of Mulliken charges =  -0.00000

 Dipole moment (field-independent basis, Debye):
    X=              0.0171    Y=             -0.0012    Z=              0.0054  Tot=              0.0180
 Quadrupole moment (field-independent basis, Debye-Ang):
   XX=            -81.1590   YY=            -83.5850   ZZ=            -99.3691
   XY=             -0.3190   XZ=              0.6121   YZ=              0.8290

  Exact polarizability:     296.137       6.544     173.487       0.484       2.244     100.170
 Approx polarizability:     333.195      10.846     255.035       1.092       3.500     145.237

 Summary of Natural Population Analysis:

                                       Natural Population
                Natural  -----------------------------------------------
    Atom  No    Charge         Core      Valence    Rydberg      Total
 -----------------------------------------------------------------------
      C    1   -0.04830      1.99909     4.02988    0.01933     6.04830
      C    2   -0.19755      1.99915     4.18028    0.01813     6.19755
      C    3   -0.17234      1.99917     4.15535    0.01783     6.17234
      C    4   -0.16769      1.99907     4.15170    0.01693     6.16769
      C    5   -0.05050      1.99910     4.03112    0.02028     6.05050
      C    6   -0.19799      1.99914     4.18070    0.01814     6.19799
      C    7   -0.20406      1.99923     4.18631    0.01852     6.20406
      C    8   -0.21310      1.99922     4.19537    0.01851     6.21310
      C    9   -0.20415      1.99923     4.18645    0.01847     6.20415
      C   10   -0.19622      1.99914     4.17892    0.01816     6.19622
      H   11    0.21586      0.00000     0.78293    0.00121     0.78414
      H   12    0.21185      0.00000     0.78691    0.00124     0.78815
      H   13    0.20866      0.00000     0.78831    0.00303     0.79134
      H   14    0.21391      0.00000     0.78484    0.00125     0.78609
      H   15    0.21363      0.00000     0.78533    0.00104     0.78637
      H   16    0.21360      0.00000     0.78537    0.00103     0.78640
      H   17    0.21363      0.00000     0.78532    0.00105     0.78637
      H   18    0.21456      0.00000     0.78425    0.00119     0.78544
      C   19   -0.06595      1.99912     4.04691    0.01992     6.06595
      C   20   -0.05828      1.99913     4.03940    0.01975     6.05828
      C   21   -0.17936      1.99916     4.16241    0.01779     6.17936
      C   22   -0.20976      1.99922     4.19224    0.01830     6.20976
      C   23   -0.21164      1.99922     4.19396    0.01845     6.21164
      C   24   -0.17871      1.99916     4.16180    0.01775     6.17871
      H   25    0.21097      0.00000     0.78783    0.00120     0.78903
      H   26    0.21399      0.00000     0.78497    0.00105     0.78601
      H   27    0.21399      0.00000     0.78496    0.00105     0.78601
      H   28    0.21094      0.00000     0.78779    0.00127     0.78906
 =======================================================================
   * Total *    0.00000     31.98655    75.70161    0.31185   108.00000

                      1                      2                      3
                      A                      A                      A
 Frequencies --     56.2658                66.2677                95.1667
 Red. masses --      4.3974                 4.1084                 4.5754
 Frc consts  --      0.0082                 0.0106                 0.0244
 IR Inten    --      0.2782                 0.2750                 0.1529

                      4                      5                      6
                      A                      A                      A
 Frequencies --    173.1383               191.0530               264.6303
 Red. masses --      4.8311                 3.6155                 5.3793
 Frc consts  --      0.0853                 0.0778                 0.2219
 IR Inten    --      0.2147                 0.8622                 0.0485

                      7                      8                      9
                      A                      A                      A
 Frequencies --    280.0634               341.8679               404.2834
 Red. masses --      5.1809                 4.4252                 3.3101
 Frc consts  --      0.2394                 0.3047                 0.3188
 IR Inten    --      0.1912                 0.4669                 0.2798

                     10                     11                     12
                      A                      A                      A
 Frequencies --    418.5598               436.7949               491.3796
 Red. masses --      2.9528                 3.6821                 2.5441
 Frc consts  --      0.3048                 0.4139                 0.3619
 IR Inten    --      0.2907                 1.6711                19.4426

                     13                     14                     15
                      A                      A                      A
 Frequencies --    516.4566               528.8406               561.4157
 Red. masses --      4.1698                 5.7482                 3.8383
 Frc consts  --      0.6553                 0.9472                 0.7128
 IR Inten    --      3.9789                 0.9076                 3.0533

                     16                     17                     18
                      A                      A                      A
 Frequencies --    570.5621               630.8814               640.5894
 Red. masses --      5.2325                 6.3841                 6.5502
 Frc consts  --      1.0036                 1.4971                 1.5837
 IR Inten    --      5.6934                 0.3758                 1.6788

                     19                     20                     21
                      A                      A                      A
 Frequencies --    678.5377               712.1605               723.6013
 Red. masses --      2.7990                 6.0671                 1.7157
 Frc consts  --      0.7593                 1.8129                 0.5293
 IR Inten    --      0.8141                 4.5179                39.7356

                     22                     23                     24
                      A                      A                      A
 Frequencies --    767.6851               791.0432               797.8710
 Red. masses --      1.3307                 2.2351                 3.6603
 Frc consts  --      0.4620                 0.8240                 1.3729
 IR Inten    --      9.1754                48.2382                 8.4137

                     25                     26                     27
                      A                      A                      A
 Frequencies --    805.1780               853.1576               873.8052
 Red. masses --      2.4627                 1.3679                 3.6381
 Frc consts  --      0.9407                 0.5866                 1.6366
 IR Inten    --     19.5722                21.6192                 1.7600

                     28                     29                     30
                      A                      A                      A
 Frequencies --    877.4192               894.4369               936.9648
 Red. masses --      1.3868                 1.5523                 1.5835
 Frc consts  --      0.6290                 0.7317                 0.8190
 IR Inten    --      0.0973                15.3484                 7.6998

                     31                     32                     33
                      A                      A                      A
 Frequencies --    957.8529               960.4355               986.6581
 Red. masses --      1.7741                 3.3397                 1.3557
 Frc consts  --      0.9590                 1.8151                 0.7776
 IR Inten    --      1.6020                 3.6225                 1.9797

                     34                     35                     36
                      A                      A                      A
 Frequencies --    999.2747              1001.6076              1010.1431
 Red. masses --      1.3633                 1.3602                 1.3076
 Frc consts  --      0.8021                 0.8040                 0.7861
 IR Inten    --      0.7255                 0.5662                 0.0049

                     37                     38                     39
                      A                      A                      A
 Frequencies --   1016.8147              1022.2719              1049.0501
 Red. masses --      1.2961                 5.5569                 2.9228
 Frc consts  --      0.7895                 3.4215                 1.8952
 IR Inten    --      0.0522                 0.4010                 0.9418

                     40                     41                     42
                      A                      A                      A
 Frequencies --   1057.8465              1076.4331              1114.5723
 Red. masses --      2.5835                 1.8229                 1.5112
 Frc consts  --      1.7034                 1.2445                 1.1061
 IR Inten    --      5.6563                 1.4735                 4.1009

                     43                     44                     45
                      A                      A                      A
 Frequencies --   1160.8458              1164.6344              1177.4942
 Red. masses --      1.5034                 1.3900                 1.1490
 Frc consts  --      1.1936                 1.1109                 0.9386
 IR Inten    --      4.7654                 2.1295                 0.0011

                     46                     47                     48
                      A                      A                      A
 Frequencies --   1186.6072              1208.0708              1220.5087
 Red. masses --      1.1448                 1.1351                 1.5570
 Frc consts  --      0.9497                 0.9761                 1.3665
 IR Inten    --      0.6349                 1.2187                 1.2880

                     49                     50                     51
                      A                      A                      A
 Frequencies --   1262.3456              1295.1618              1302.7162
 Red. masses --      1.7617                 1.7369                 3.3347
 Frc consts  --      1.6541                 1.7166                 3.3343
 IR Inten    --      0.9531                 4.4532                 1.1144

                     52                     53                     54
                      A                      A                      A
 Frequencies --   1318.1582              1352.8834              1389.5071
 Red. masses --      2.8697                 1.5025                 2.0248
 Frc consts  --      2.9378                 1.6203                 2.3033
 IR Inten    --      0.0565                 1.0351                 3.4837

                     55                     56                     57
                      A                      A                      A
 Frequencies --   1408.5773              1428.9357              1474.5613
 Red. masses --      3.3411                 5.3636                 2.5305
 Frc consts  --      3.9057                 6.4526                 3.2418
 IR Inten    --      2.7469                 0.5141                 3.1590

                     58                     59                     60
                      A                      A                      A
 Frequencies --   1497.8891              1512.2137              1547.1102
 Red. masses --      2.4891                 2.3538                 2.6978
 Frc consts  --      3.2904                 3.1713                 3.8045
 IR Inten    --      5.3013                 6.1112                20.3205

                     61                     62                     63
                      A                      A                      A
 Frequencies --   1565.1896              1644.4396              1655.7015
 Red. masses --      3.6083                 6.2825                 6.7330
 Frc consts  --      5.2082                10.0097                10.8749
 IR Inten    --      5.0288                 1.8431                 1.0535

                     64                     65                     66
                      A                      A                      A
 Frequencies --   1676.7532              1681.0541              1709.0152
 Red. masses --      5.9634                 5.8747                 6.6719
 Frc consts  --      9.8782                 9.7814                11.4813
 IR Inten    --     14.2408                 2.6807                 6.5769

                     67                     68                     69
                      A                      A                      A
 Frequencies --   3194.2250              3195.5103              3195.7704
 Red. masses --      1.0876                 1.0875                 1.0892
 Frc consts  --      6.5382                 6.5429                 6.5541
 IR Inten    --      0.7889                12.1851                 1.9758

                     70                     71                     72
                      A                      A                      A
 Frequencies --   3198.9407              3199.2791              3203.5844
 Red. masses --      1.0888                 1.0858                 1.0879
 Frc consts  --      6.5644                 6.5480                 6.5782
 IR Inten    --      0.1550                 2.5069                 0.1301

                     73                     74                     75
                      A                      A                      A
 Frequencies --   3212.0622              3213.8679              3216.6190
 Red. masses --      1.0915                 1.0936                 1.0946
 Frc consts  --      6.6351                 6.6555                 6.6728
 IR Inten    --      3.6264                13.6453                 3.5952

                     76                     77                     78
                      A                      A                      A
 Frequencies --   3219.2143              3226.5390              3229.2850
 Red. masses --      1.0947                 1.0975                 1.0985
 Frc consts  --      6.6840                 6.7321                 6.7496
 IR Inten    --     17.9005                14.1710                11.3451

 - Thermochemistry -
 -------------------
 Temperature   298.150 Kelvin.  Pressure   1.00000 Atm.
 Atom     1 has atomic number  6 and mass  12.00000

 Molecular mass:   204.09390 amu.
 Principal axes and moments of inertia in atomic units:
                           1         2         3
     Eigenvalues --  1006.943556754.435537570.86327
           X            1.00000   0.00002   0.00042
           Y           -0.00002   0.99999   0.00475
           Z           -0.00042  -0.00475   0.99999
 This molecule is an asymmetric top.
 Rotational symmetry number  1.
 Warning -- assumption of classical behavior for rotation
           may cause significant error
 Rotational temperatures (Kelvin)      0.08602     0.01282     0.01144
 Rotational constants (GHZ):           1.79230     0.26719     0.23838
 Zero-point vibrational energy     603984.4 (Joules/Mol)
                                  144.35574 (Kcal/Mol)
 Warning -- explicit consideration of  16 degrees of freedom as
           vibrations may cause significant error
 Vibrational temperatures:     80.95    95.34   136.92   249.11   274.88
          (Kelvin)            380.74   402.95   491.87   581.67   602.21
                              628.45   706.99   743.07   760.88   807.75
                              820.91   907.70   921.67   976.26  1024.64
                             1041.10  1104.53  1138.13  1147.96  1158.47
                             1227.50  1257.21  1262.41  1286.90  1348.08
                             1378.14  1381.85  1419.58  1437.73  1441.09
                             1453.37  1462.97  1470.82  1509.35  1522.01
                             1548.75  1603.62  1670.20  1675.65  1694.15
                             1707.26  1738.14  1756.04  1816.23  1863.45
                             1874.32  1896.54  1946.50  1999.19  2026.63
                             2055.92  2121.56  2155.13  2175.74  2225.95
                             2251.96  2365.98  2382.19  2412.47  2418.66
                             2458.89  4595.78  4597.63  4598.00  4602.56
                             4603.05  4609.24  4621.44  4624.04  4628.00
                             4631.73  4642.27  4646.22

 Zero-point correction=                           0.230046 (Hartree/Particle)
 Thermal correction to Energy=                    0.241441
 Thermal correction to Enthalpy=                  0.242385
 Thermal correction to Gibbs Free Energy=         0.192022
 Sum of electronic and zero-point Energies=           -616.673116
 Sum of electronic and thermal Energies=              -616.661720
 Sum of electronic and thermal Enthalpies=            -616.660776
 Sum of electronic and thermal Free Energies=         -616.711139

                     E (Thermal)             CV                S
                      KCal/Mol        Cal/Mol-Kelvin    Cal/Mol-Kelvin
 Total                  151.506             47.589            105.999
 Electronic               0.000              0.000              0.000
 Translational            0.889              2.981             41.845
 Rotational               0.889              2.981             32.310
 Vibrational            149.729             41.627             31.844
 Vibration     1          0.596              1.975              4.584
 Vibration     2          0.598              1.970              4.261
 Vibration     3          0.603              1.953              3.551
 Vibration     4          0.627              1.876              2.401
 Vibration     5          0.634              1.852              2.218
 Vibration     6          0.671              1.738              1.631
 Vibration     7          0.680              1.710              1.533
 Vibration     8          0.721              1.592              1.203
 Vibration     9          0.769              1.461              0.947
 Vibration    10          0.781              1.430              0.897
 Vibration    11          0.797              1.390              0.837
 Vibration    12          0.847              1.269              0.680
 Vibration    13          0.871              1.214              0.618
 Vibration    14          0.884              1.186              0.590
 Vibration    15          0.917              1.115              0.521
 Vibration    16          0.927              1.095              0.503

 Optimization completed.
    -- Stationary point found.
 Normal termination of Gaussian 16 at Tue Oct 31 20:53:05 2023.
