 Gaussian 16, Revision C.01,
 Gaussian 16:  ES64L-G16RevC.01  3-Jul-2019

 -----------------------------------------
 # opt freq=noraman m062x def2tzvp pop=nbo
 -----------------------------------------

 ------------
 Structure697
 ------------
 Symbolic Z-matrix:
 Charge =  0 Multiplicity = 1

 SCF Done:  E(RM062X) =  -1137.44837333     A.U. after   21 cycles
 SCF Done:  E(RM062X) =  -1137.45219273     A.U. after   15 cycles
 SCF Done:  E(RM062X) =  -1137.45240510     A.U. after   13 cycles
 SCF Done:  E(RM062X) =  -1137.45243810     A.U. after    8 cycles
 SCF Done:  E(RM062X) =  -1137.45244004     A.U. after    8 cycles
 SCF Done:  E(RM062X) =  -1137.45244256     A.U. after   21 cycles
 SCF Done:  E(RM062X) =  -1137.45245133     A.U. after   16 cycles
 SCF Done:  E(RM062X) =  -1137.45241424     A.U. after   18 cycles
 SCF Done:  E(RM062X) =  -1137.45246205     A.U. after   17 cycles
 SCF Done:  E(RM062X) =  -1137.45244532     A.U. after   14 cycles
 SCF Done:  E(RM062X) =  -1137.45247006     A.U. after   16 cycles
 SCF Done:  E(RM062X) =  -1137.45246632     A.U. after   22 cycles
 SCF Done:  E(RM062X) =  -1137.43770627     A.U. after   17 cycles
 SCF Done:  E(RM062X) =  -1137.45247882     A.U. after   23 cycles
 SCF Done:  E(RM062X) =  -1137.45247417     A.U. after   17 cycles
 SCF Done:  E(RM062X) =  -1137.45247928     A.U. after   16 cycles
 Optimization completed.
    -- Stationary point found.
 Normal termination of Gaussian 16 at Tue Oct 31 21:19:30 2023.

 --------------------------------------------------------------------
 #N Geom=AllCheck Guess=TCheck SCRF=Check GenChk RM062X/def2TZVP Freq
 --------------------------------------------------------------------

 Structure from the checkpoint file:  "ph35cf3_1_1_m062x.chk"
 ------------
 Structure697
 ------------
 Charge =  0 Multiplicity = 1

                         Standard orientation:
 ---------------------------------------------------------------------
 Center     Atomic      Atomic             Coordinates (Angstroms)
 Number     Number       Type             X           Y           Z
 ---------------------------------------------------------------------
      1          6           0       -2.393617    0.000003    0.000000
      2          6           0       -3.103129   -0.957557   -0.724005
      3          6           0       -4.489318   -0.956471   -0.725094
      4          6           0       -5.186429    0.000006   -0.000001
      5          6           0       -4.489317    0.956481    0.725093
      6          6           0       -3.103128    0.957564    0.724005
      7          1           0       -2.565385   -1.691983   -1.310942
      8          1           0       -5.026094   -1.700217   -1.299300
      9          1           0       -6.268447    0.000007   -0.000002
     10          1           0       -5.026092    1.700229    1.299299
     11          1           0       -2.565383    1.691989    1.310942
     12          6           0        1.897094   -0.000001    0.000003
     13          6           0        1.187352   -1.189487    0.031196
     14          6           0       -0.198370   -1.195459    0.033372
     15          6           0       -0.913143    0.000001    0.000001
     16          6           0       -0.198368    1.195461   -0.033369
     17          6           0        1.187353    1.189488   -0.031190
     18          1           0       -0.728158   -2.138861    0.080653
     19          1           0       -0.728155    2.138865   -0.080650
     20          1           0        2.977646   -0.000001    0.000005
     21          6           0        1.912648   -2.505053    0.112809
     22          9           0        1.858039   -3.017861    1.349014
     23          9           0        1.372497   -3.415484   -0.705876
     24          9           0        3.202575   -2.390280   -0.210300
     25          6           0        1.912657    2.505049   -0.112809
     26          9           0        1.858126    3.017810   -1.349037
     27          9           0        1.372461    3.415513    0.705809
     28          9           0        3.202565    2.390283    0.210381
 ---------------------------------------------------------------------

 SCF Done:  E(RM062X) =  -1137.45247928     A.U. after    1 cycles

 The electronic state is 1-A.
 Alpha  occ. eigenvalues --  -25.28889 -25.28889 -25.28653 -25.28653 -25.28392
 Alpha  occ. eigenvalues --  -25.28391 -10.80599 -10.80599 -10.59084 -10.59081
 Alpha  occ. eigenvalues --  -10.58681 -10.58354 -10.58083 -10.58077 -10.57207
 Alpha  occ. eigenvalues --  -10.55974 -10.55970 -10.55778 -10.55746 -10.55651
 Alpha  occ. eigenvalues --   -1.47696  -1.47693  -1.38491  -1.38488  -1.38042
 Alpha  occ. eigenvalues --   -1.38042  -1.01953  -0.98346  -0.92641  -0.91760
 Alpha  occ. eigenvalues --   -0.86299  -0.85127  -0.82837  -0.81840  -0.75136
 Alpha  occ. eigenvalues --   -0.75040  -0.72084  -0.70899  -0.70142  -0.70090
 Alpha  occ. eigenvalues --   -0.69994  -0.69827  -0.66610  -0.63462  -0.61398
 Alpha  occ. eigenvalues --   -0.60295  -0.59149  -0.58405  -0.58251  -0.57841
 Alpha  occ. eigenvalues --   -0.56672  -0.55394  -0.54358  -0.54136  -0.53990
 Alpha  occ. eigenvalues --   -0.53881  -0.52647  -0.52199  -0.52183  -0.51557
 Alpha  occ. eigenvalues --   -0.50763  -0.50217  -0.49537  -0.48087  -0.45788
 Alpha  occ. eigenvalues --   -0.45741  -0.44292  -0.41954  -0.41741  -0.36579
 Alpha  occ. eigenvalues --   -0.35076  -0.32713  -0.30655
 Alpha virt. eigenvalues --   -0.03289  -0.02791   0.00401   0.02644   0.07107
 Alpha virt. eigenvalues --    0.08745   0.08817   0.10719   0.11247   0.11973
 Alpha virt. eigenvalues --    0.12641   0.12704   0.14547   0.14802   0.14982

 Mulliken charges:
               1
     1  C    0.116832
     2  C   -0.214700
     3  C   -0.152278
     4  C   -0.142815
     5  C   -0.152278
     6  C   -0.214700
     7  H    0.174020
     8  H    0.149539
     9  H    0.148543
    10  H    0.149539
    11  H    0.174020
    12  C   -0.183919
    13  C   -0.004426
    14  C   -0.260204
    15  C    0.131195
    16  C   -0.260202
    17  C   -0.004422
    18  H    0.196258
    19  H    0.196260
    20  H    0.195057
    21  C    0.507393
    22  F   -0.173061
    23  F   -0.179095
    24  F   -0.175896
    25  C    0.507391
    26  F   -0.173060
    27  F   -0.179096
    28  F   -0.175896
 Sum of Mulliken charges =  -0.00000

 Dipole moment (field-independent basis, Debye):
    X=             -3.4109    Y=              0.0000    Z=              0.0000  Tot=              3.4109
 Quadrupole moment (field-independent basis, Debye-Ang):
   XX=           -102.8298   YY=           -118.5590   ZZ=           -113.9675
   XY=             -0.0000   XZ=              0.0000   YZ=              4.5101

  Exact polarizability:     221.862      -0.000     158.853       0.000      14.055     103.655
 Approx polarizability:     252.465      -0.000     210.356       0.000      22.464     146.806

 Summary of Natural Population Analysis:

                                       Natural Population
                Natural  -----------------------------------------------
    Atom  No    Charge         Core      Valence    Rydberg      Total
 -----------------------------------------------------------------------
      C    1   -0.06339      1.99909     4.04422    0.02008     6.06339
      C    2   -0.19327      1.99914     4.17588    0.01824     6.19327
      C    3   -0.20072      1.99923     4.18296    0.01854     6.20072
      C    4   -0.20381      1.99922     4.18624    0.01835     6.20381
      C    5   -0.20072      1.99923     4.18296    0.01854     6.20072
      C    6   -0.19327      1.99914     4.17588    0.01824     6.19327
      H    7    0.21623      0.00000     0.78255    0.00122     0.78377
      H    8    0.21762      0.00000     0.78134    0.00104     0.78238
      H    9    0.21706      0.00000     0.78192    0.00102     0.78294
      H   10    0.21762      0.00000     0.78134    0.00104     0.78238
      H   11    0.21623      0.00000     0.78255    0.00122     0.78377
      C   12   -0.16673      1.99906     4.14999    0.01767     6.16673
      C   13   -0.13788      1.99899     4.11468    0.02421     6.13788
      C   14   -0.15414      1.99907     4.13758    0.01749     6.15414
      C   15   -0.03248      1.99912     4.01294    0.02043     6.03248
      C   16   -0.15414      1.99907     4.13758    0.01749     6.15414
      C   17   -0.13788      1.99899     4.11468    0.02421     6.13788
      H   18    0.23438      0.00000     0.76431    0.00130     0.76562
      H   19    0.23438      0.00000     0.76431    0.00130     0.76562
      H   20    0.25110      0.00000     0.74770    0.00120     0.74890
      C   21    0.97581      1.99917     2.97516    0.04986     5.02419
      F   22   -0.31963      1.99992     7.31090    0.00881     9.31963
      F   23   -0.32097      1.99992     7.31214    0.00891     9.32097
      F   24   -0.31831      1.99992     7.30926    0.00913     9.31831
      C   25    0.97581      1.99917     2.97516    0.04986     5.02419
      F   26   -0.31963      1.99992     7.31090    0.00881     9.31963
      F   27   -0.32097      1.99992     7.31214    0.00891     9.32097
      F   28   -0.31831      1.99992     7.30926    0.00913     9.31831
 =======================================================================
   * Total *    0.00000     39.98721   105.61652    0.39626   146.00000

                      1                      2                      3
                      A                      A                      A
 Frequencies --     10.9237                12.7514                48.5658
 Red. masses --     17.5224                18.1459                 3.9227
 Frc consts  --      0.0012                 0.0017                 0.0055
 IR Inten    --      0.0749                 0.0280                 0.0144

                      4                      5                      6
                      A                      A                      A
 Frequencies --     61.7023                73.2883               111.3711
 Red. masses --      7.5762                 7.0228                13.8308
 Frc consts  --      0.0170                 0.0222                 0.1011
 IR Inten    --      0.1309                 0.1015                 1.2680

                      7                      8                      9
                      A                      A                      A
 Frequencies --    127.8964               152.8222               206.0660
 Red. masses --      5.9813                 7.5336                 5.9361
 Frc consts  --      0.0576                 0.1037                 0.1485
 IR Inten    --      0.8121                 0.0000                 0.0767

                     10                     11                     12
                      A                      A                      A
 Frequencies --    254.4326               273.0380               292.0516
 Red. masses --     10.3712                 5.2925                11.9397
 Frc consts  --      0.3956                 0.2325                 0.6000
 IR Inten    --      0.5001                 0.0313                 0.5146

                     13                     14                     15
                      A                      A                      A
 Frequencies --    306.1620               318.6573               357.1343
 Red. masses --      7.1285                 5.3282                 8.2439
 Frc consts  --      0.3937                 0.3188                 0.6195
 IR Inten    --      0.8688                 0.0001                 1.2465

                     16                     17                     18
                      A                      A                      A
 Frequencies --    412.1012               416.4051               423.7753
 Red. masses --      6.7866                 3.3624                 6.8726
 Frc consts  --      0.6791                 0.3435                 0.7272
 IR Inten    --      2.5356                 0.0556                 3.2503

                     19                     20                     21
                      A                      A                      A
 Frequencies --    458.0442               515.5555               522.1059
 Red. masses --      6.2220                11.8292                 5.5052
 Frc consts  --      0.7691                 1.8525                 0.8842
 IR Inten    --      6.1185                 0.1185                 4.9199

                     22                     23                     24
                      A                      A                      A
 Frequencies --    549.3944               581.9934               626.0366
 Red. masses --      7.4450                15.5987                 6.6875
 Frc consts  --      1.3240                 3.1130                 1.5442
 IR Inten    --      0.8692                 0.1243                 0.6307

                     25                     26                     27
                      A                      A                      A
 Frequencies --    631.1158               640.9095               659.7867
 Red. masses --      6.4504                 7.4303                 5.1884
 Frc consts  --      1.5138                 1.7982                 1.3307
 IR Inten    --      0.1395                18.5520                 0.9625

                     28                     29                     30
                      A                      A                      A
 Frequencies --    691.4605               698.1076               724.5557
 Red. masses --      7.3670                12.4829                 1.6980
 Frc consts  --      2.0753                 3.5844                 0.5252
 IR Inten    --      0.6469                47.0188                38.4439

                     31                     32                     33
                      A                      A                      A
 Frequencies --    735.4916               742.5239               795.9168
 Red. masses --      2.1019                13.0547                 1.9242
 Frc consts  --      0.6699                 4.2407                 0.7182
 IR Inten    --     23.8793                12.3272                39.7576

                     34                     35                     36
                      A                      A                      A
 Frequencies --    856.1511               878.1296               879.4104
 Red. masses --      7.7538                 1.2515                11.3330
 Frc consts  --      3.3486                 0.5686                 5.1639
 IR Inten    --      9.3629                 0.1840                17.3900

                     37                     38                     39
                      A                      A                      A
 Frequencies --    943.3966               953.9096               965.2687
 Red. masses --      1.5737                 1.4485                 1.3994
 Frc consts  --      0.8252                 0.7765                 0.7682
 IR Inten    --     25.1131                14.3968                 0.2874

                     40                     41                     42
                      A                      A                      A
 Frequencies --    969.8844              1003.7161              1019.5461
 Red. masses --      1.5724                 1.3903                 6.2969
 Frc consts  --      0.8715                 0.8252                 3.8565
 IR Inten    --      1.1491                 0.6017                 0.2392

                     43                     44                     45
                      A                      A                      A
 Frequencies --   1024.6857              1024.6997              1062.6305
 Red. masses --      1.3052                 5.4884                 2.7481
 Frc consts  --      0.8075                 3.3954                 1.8283
 IR Inten    --      0.0059                 1.8091                 0.1059

                     46                     47                     48
                      A                      A                      A
 Frequencies --   1100.1368              1118.4233              1142.8286
 Red. masses --      2.9040                 1.5278                 2.4290
 Frc consts  --      2.0708                 1.1260                 1.8692
 IR Inten    --     47.7103                 3.6081                 3.0558

                     49                     50                     51
                      A                      A                      A
 Frequencies --   1145.6425              1181.2664              1212.0094
 Red. masses --      1.7267                 1.1550                 8.1060
 Frc consts  --      1.3352                 0.9496                 7.0156
 IR Inten    --     19.4245                 0.1192                 1.4212

                     52                     53                     54
                      A                      A                      A
 Frequencies --   1212.7897              1213.9429              1234.1396
 Red. masses --      1.1923                12.4917                 8.4810
 Frc consts  --      1.0332                10.8459                 7.6107
 IR Inten    --      0.0007               501.2618               132.6769

                     55                     56                     57
                      A                      A                      A
 Frequencies --   1247.5891              1290.6218              1296.1944
 Red. masses --      5.8746                 2.3005                 2.8174
 Frc consts  --      5.3873                 2.2577                 2.7889
 IR Inten    --    232.9049                 0.6858               120.6920

                     58                     59                     60
                      A                      A                      A
 Frequencies --   1314.3222              1323.1325              1345.0714
 Red. masses --      3.3441                 4.3768                 1.8316
 Frc consts  --      3.4036                 4.5145                 1.9524
 IR Inten    --    142.3521               414.5923                10.8609

                     61                     62                     63
                      A                      A                      A
 Frequencies --   1364.2447              1426.7948              1476.3502
 Red. masses --      1.6501                 7.3573                 2.8329
 Frc consts  --      1.8094                 8.8245                 3.6380
 IR Inten    --      2.7663               253.7816                 1.7347

                     64                     65                     66
                      A                      A                      A
 Frequencies --   1514.0496              1517.3527              1552.3047
 Red. masses --      3.3757                 3.6450                 2.7870
 Frc consts  --      4.5592                 4.9445                 3.9567
 IR Inten    --     11.3515                12.2737                 0.1037

                     67                     68                     69
                      A                      A                      A
 Frequencies --   1652.7970              1679.5842              1688.3914
 Red. masses --      5.7712                 5.9709                 6.6419
 Frc consts  --      9.2887                 9.9242                11.1556
 IR Inten    --      0.7383                 1.1564                 3.1980

                     70                     71                     72
                      A                      A                      A
 Frequencies --   1689.5466              3199.9536              3202.8423
 Red. masses --      6.3379                 1.0863                 1.0884
 Frc consts  --     10.6595                 6.5535                 6.5781
 IR Inten    --      7.8307                 3.7956                 0.1049

                     73                     74                     75
                      A                      A                      A
 Frequencies --   3212.2997              3216.1488              3216.9486
 Red. masses --      1.0911                 1.0910                 1.0916
 Frc consts  --      6.6336                 6.6486                 6.6560
 IR Inten    --      2.5143                 1.1371                 0.1029

                     76                     77                     78
                      A                      A                      A
 Frequencies --   3219.9380              3230.4059              3248.1241
 Red. masses --      1.0945                 1.0986                 1.0919
 Frc consts  --      6.6861                 6.7544                 6.7876
 IR Inten    --      8.1365                 7.7091                 4.8078

 - Thermochemistry -
 -------------------
 Temperature   298.150 Kelvin.  Pressure   1.00000 Atm.
 Atom     1 has atomic number  6 and mass  12.00000

 Molecular mass:   290.05302 amu.
 Principal axes and moments of inertia in atomic units:
                           1         2         3
     Eigenvalues --  5043.191117523.52044**********
           X            1.00000  -0.00000   0.00000
           Y            0.00000   0.99996   0.00921
           Z           -0.00000  -0.00921   0.99996
 This molecule is an asymmetric top.
 Rotational symmetry number  1.
 Warning -- assumption of classical behavior for rotation
           may cause significant error
 Rotational temperatures (Kelvin)      0.01717     0.01151     0.00741
 Rotational constants (GHZ):           0.35786     0.23988     0.15432
 Zero-point vibrational energy     506617.1 (Joules/Mol)
                                  121.08438 (Kcal/Mol)
 Warning -- explicit consideration of  23 degrees of freedom as
           vibrations may cause significant error
 Vibrational temperatures:     15.72    18.35    69.88    88.78   105.45
          (Kelvin)            160.24   184.01   219.88   296.48   366.07
                              392.84   420.20   440.50   458.48   513.84
                              592.92   599.11   609.72   659.02   741.77
                              751.19   790.46   837.36   900.73   908.03
                              922.13   949.29   994.86  1004.42  1042.47
                             1058.21  1068.33  1145.15  1231.81  1263.43
                             1265.28  1357.34  1372.46  1388.81  1395.45
                             1444.12  1466.90  1474.29  1474.31  1528.89
                             1582.85  1609.16  1644.28  1648.32  1699.58
                             1743.81  1744.93  1746.59  1775.65  1795.00
                             1856.92  1864.93  1891.02  1903.69  1935.26
                             1962.84  2052.84  2124.14  2178.38  2183.13
                             2233.42  2378.01  2416.55  2429.22  2430.88
                             4604.02  4608.18  4621.78  4627.32  4628.47
                             4632.77  4647.83  4673.33

 Zero-point correction=                           0.192960 (Hartree/Particle)
 Thermal correction to Energy=                    0.209062
 Thermal correction to Enthalpy=                  0.210006
 Thermal correction to Gibbs Free Energy=         0.145153
 Sum of electronic and zero-point Energies=          -1137.259519
 Sum of electronic and thermal Energies=             -1137.243418
 Sum of electronic and thermal Enthalpies=           -1137.242474
 Sum of electronic and thermal Free Energies=        -1137.307326

                     E (Thermal)             CV                S
                      KCal/Mol        Cal/Mol-Kelvin    Cal/Mol-Kelvin
 Total                  131.188             60.812            136.494
 Electronic               0.000              0.000              0.000
 Translational            0.889              2.981             42.892
 Rotational               0.889              2.981             34.450
 Vibrational            129.411             54.850             59.152
 Vibration     1          0.593              1.987              7.836
 Vibration     2          0.593              1.987              7.528
 Vibration     3          0.595              1.978              4.875
 Vibration     4          0.597              1.973              4.402
 Vibration     5          0.599              1.967              4.063
 Vibration     6          0.607              1.940              3.245
 Vibration     7          0.611              1.925              2.977
 Vibration     8          0.619              1.900              2.637
 Vibration     9          0.641              1.831              2.078
 Vibration    10          0.665              1.755              1.700
 Vibration    11          0.676              1.723              1.577
 Vibration    12          0.687              1.689              1.462
 Vibration    13          0.697              1.662              1.383
 Vibration    14          0.705              1.638              1.317
 Vibration    15          0.732              1.561              1.135
 Vibration    16          0.776              1.444              0.919
 Vibration    17          0.780              1.435              0.904
 Vibration    18          0.786              1.419              0.879
 Vibration    19          0.816              1.343              0.772
 Vibration    20          0.871              1.216              0.620
 Vibration    21          0.877              1.201              0.605
 Vibration    22          0.905              1.141              0.545
 Vibration    23          0.939              1.070              0.482

                           ! Non-Optimized Parameters !
 Normal termination of Gaussian 16 at Tue Oct 31 23:01:19 2023.
