 Gaussian 16, Revision C.01,
 Gaussian 16:  ES64L-G16RevC.01  3-Jul-2019

 -----------------------------------------
 # opt freq=noraman m062x def2tzvp pop=nbo
 -----------------------------------------

 ------------
 Structure697
 ------------
 Symbolic Z-matrix:
 Charge =  0 Multiplicity = 1

 SCF Done:  E(RM062X) =  -2256.49360047     A.U. after   17 cycles
 SCF Done:  E(RM062X) =  -2256.61540308     A.U. after   15 cycles
 SCF Done:  E(RM062X) =  -2256.71572232     A.U. after   15 cycles
 SCF Done:  E(RM062X) =  -2256.79349976     A.U. after   26 cycles
 SCF Done:  E(RM062X) =  -2256.84778431     A.U. after   16 cycles
 SCF Done:  E(RM062X) =  -2256.86189730     A.U. after   18 cycles
 SCF Done:  E(RM062X) =  -2256.86999011     A.U. after   17 cycles
 SCF Done:  E(RM062X) =  -2256.87014798     A.U. after   14 cycles
 SCF Done:  E(RM062X) =  -2256.87021006     A.U. after   14 cycles
 SCF Done:  E(RM062X) =  -2256.87035350     A.U. after   14 cycles
 SCF Done:  E(RM062X) =  -2256.87088300     A.U. after    6 cycles
 SCF Done:  E(RM062X) =  -2256.87088429     A.U. after    6 cycles
 SCF Done:  E(RM062X) =  -2256.87088506     A.U. after    5 cycles
 SCF Done:  E(RM062X) =  -2256.87088552     A.U. after    5 cycles
 SCF Done:  E(RM062X) =  -2256.87088584     A.U. after    4 cycles
 SCF Done:  E(RM062X) =  -2256.87088605     A.U. after    4 cycles
 SCF Done:  E(RM062X) =  -2256.87088697     A.U. after    6 cycles
 SCF Done:  E(RM062X) =  -2256.87088736     A.U. after    5 cycles
 SCF Done:  E(RM062X) =  -2256.87089017     A.U. after    7 cycles
 Optimization completed.
    -- Stationary point found.

 1\1\GINC-SE090\FOpt\RM062X\def2TZVP\C12H8F10S2\JREID03\31-Oct-2023\0\\
 # opt freq=noraman m062x def2tzvp pop=nbo\\Structure697\\0,1\C,-2.7071
 53655,-0.1384662943,0.5271122767\C,-2.1361936326,0.0650111662,-0.72853
 02916\C,-0.7621654029,0.1855190354,-0.8657207443\C,0.0593708401,0.1072
 082034,0.2502843578\C,-0.5001958293,-0.0937339411,1.5044863373\C,-1.87
 39015748,-0.2172297205,1.6422447354\H,-0.3319685182,0.3338159352,-1.84
 74502374\H,0.1337561351,-0.1475132466,2.3797380896\H,-2.7697304057,0.1
 02985103,-1.6062275558\H,-2.3059570381,-0.3497942913,2.6265826287\C,-6

 Normal termination of Gaussian 16 at Tue Oct 31 23:06:54 2023.

 --------------------------------------------------------------------
 #N Geom=AllCheck Guess=TCheck SCRF=Check GenChk RM062X/def2TZVP Freq
 --------------------------------------------------------------------

 Structure from the checkpoint file:  "ph35sf5_idp_7_1_m062x.chk"
 ------------
 Structure697
 ------------
 Charge =  0 Multiplicity = 1

                         Standard orientation:
 ---------------------------------------------------------------------
 Center     Atomic      Atomic             Coordinates (Angstroms)
 Number     Number       Type             X           Y           Z
 ---------------------------------------------------------------------
      1          6           0       -3.040690   -0.004107   -0.000008
      2          6           0       -3.750319    0.947599    0.731235
      3          6           0       -5.136424    0.944470    0.732133
      4          6           0       -5.831861   -0.007869    0.000054
      5          6           0       -5.133892   -0.958320   -0.732065
      6          6           0       -3.747784   -0.957712   -0.731232
      7          1           0       -5.674226    1.683229    1.311665
      8          1           0       -5.669721   -1.698517   -1.311590
      9          1           0       -3.213741    1.678477    1.323743
     10          1           0       -3.209280   -1.687125   -1.323800
     11          6           0        1.249191    0.001672   -0.000149
     12          6           0        0.530859    1.183719   -0.025286
     13          6           0       -0.851516    1.197110   -0.027700
     14          6           0       -1.560043   -0.002112   -0.000051
     15          6           0       -0.848223   -1.199423    0.027564
     16          6           0        0.534125   -1.182367    0.025039
     17          1           0        2.328619    0.003104   -0.000018
     18          1           0       -1.386528    2.135314   -0.072517
     19          1           0       -1.380766   -2.139020    0.072429
     20          9           0        2.208341    4.117505   -0.099342
     21          9           0        2.430239    2.210754   -1.168912
     22          9           0        0.483144    3.322753   -1.203304
     23          9           0        0.492927   -3.322258    1.203415
     24          9           0        0.487021   -3.381917   -1.037877
     25          9           0        2.221790   -4.110265    0.099423
     26         16           0        1.428411    2.750966   -0.064712
     27          9           0        0.476823    3.382084    1.037820
     28          9           0        2.423462    2.269628    1.072222
     29         16           0        1.436252   -2.747444    0.064796
     30          9           0        2.429548   -2.262606   -1.072088
     31          9           0        2.436076   -2.203285    1.168806
     32          1           0       -6.913846   -0.009326    0.000078
 ---------------------------------------------------------------------

 SCF Done:  E(RM062X) =  -2256.87089017     A.U. after    1 cycles

 The electronic state is 1-A.
 Alpha  occ. eigenvalues --  -90.27618 -90.27617 -25.29422 -25.29415 -25.29392
 Alpha  occ. eigenvalues --  -25.29392 -25.29381 -25.29379 -25.29366 -25.29360
 Alpha  occ. eigenvalues --  -25.29191 -25.29177 -10.61490 -10.61488 -10.59750
 Alpha  occ. eigenvalues --  -10.59602 -10.59152 -10.59144 -10.57729 -10.56424
 Alpha  occ. eigenvalues --  -10.56420 -10.56168 -10.56135 -10.56040  -8.58279
 Alpha  occ. eigenvalues --   -8.58278  -6.50696  -6.50695  -6.50687  -6.50685
 Alpha  occ. eigenvalues --   -6.50292  -6.50290  -1.51619  -1.51607  -1.41303
 Alpha  occ. eigenvalues --   -1.41299  -1.41242  -1.41240  -1.38252  -1.38233
 Alpha  occ. eigenvalues --   -1.36490  -1.36487  -1.03235  -0.98975  -0.95818
 Alpha  occ. eigenvalues --   -0.93791  -0.90254  -0.87924  -0.86575  -0.85339
 Alpha  occ. eigenvalues --   -0.77495  -0.77224  -0.74644  -0.74558  -0.74546
 Alpha  occ. eigenvalues --   -0.74539  -0.73774  -0.71255  -0.68189  -0.67623
 Alpha  occ. eigenvalues --   -0.66165  -0.65743  -0.64119  -0.64014  -0.63809
 Alpha  occ. eigenvalues --   -0.63286  -0.62380  -0.60718  -0.59733  -0.59725
 Alpha  occ. eigenvalues --   -0.57577  -0.57259  -0.56937  -0.56616  -0.56553
 Alpha  occ. eigenvalues --   -0.56526  -0.56270  -0.56179  -0.56176  -0.55542
 Alpha  occ. eigenvalues --   -0.54045  -0.53465  -0.53218  -0.52939  -0.52391
 Alpha  occ. eigenvalues --   -0.52062  -0.52056  -0.52033  -0.51192  -0.50800
 Alpha  occ. eigenvalues --   -0.49863  -0.48829  -0.46537  -0.46260  -0.44624
 Alpha  occ. eigenvalues --   -0.42466  -0.42207  -0.37246  -0.36161  -0.33120
 Alpha  occ. eigenvalues --   -0.31223
 Alpha virt. eigenvalues --   -0.04008  -0.03530  -0.00084   0.01367   0.01885
 Alpha virt. eigenvalues --    0.03700   0.06888   0.08748   0.09220   0.11252
 Alpha virt. eigenvalues --    0.11312   0.11783   0.12066   0.12338   0.14062

 Mulliken charges:
               1
     1  C    0.112875
     2  C   -0.213745
     3  C   -0.151035
     4  C   -0.142162
     5  C   -0.151039
     6  C   -0.213749
     7  H    0.151054
     8  H    0.151051
     9  H    0.175133
    10  H    0.175131
    11  C   -0.092143
    12  C   -0.049830
    13  C   -0.200289
    14  C    0.096202
    15  C   -0.200218
    16  C   -0.049894
    17  H    0.212468
    18  H    0.214000
    19  H    0.213919
    20  F   -0.207757
    21  F   -0.201428
    22  F   -0.203007
    23  F   -0.202952
    24  F   -0.205047
    25  F   -0.207519
    26  S    0.924078
    27  F   -0.205049
    28  F   -0.200818
    29  S    0.924096
    30  F   -0.200878
    31  F   -0.201485
    32  H    0.150039
 Sum of Mulliken charges =  -0.00000

 Dipole moment (field-independent basis, Debye):
    X=             -4.3228    Y=             -0.0116    Z=              0.0010  Tot=              4.3228
 Quadrupole moment (field-independent basis, Debye-Ang):
   XX=           -133.1769   YY=           -156.6516   ZZ=           -149.4932
   XY=              0.0260   XZ=             -0.0044   YZ=              4.1980

  Exact polarizability:     244.820       0.076     187.542      -0.022      14.349     120.171
 Approx polarizability:     279.374       0.056     237.546      -0.034      22.777     171.768

 Summary of Natural Population Analysis:

                                       Natural Population
                Natural  -----------------------------------------------
    Atom  No    Charge         Core      Valence    Rydberg      Total
 -----------------------------------------------------------------------
      C    1   -0.06459      1.99909     4.04570    0.01980     6.06459
      C    2   -0.19233      1.99914     4.17541    0.01777     6.19233
      C    3   -0.19935      1.99923     4.18181    0.01830     6.19935
      C    4   -0.20135      1.99922     4.18397    0.01815     6.20135
      C    5   -0.19935      1.99923     4.18181    0.01830     6.19935
      C    6   -0.19233      1.99914     4.17542    0.01777     6.19233
      H    7    0.21875      0.00000     0.78024    0.00101     0.78125
      H    8    0.21875      0.00000     0.78024    0.00101     0.78125
      H    9    0.21682      0.00000     0.78203    0.00115     0.78318
      H   10    0.21682      0.00000     0.78203    0.00115     0.78318
      C   11   -0.18208      1.99895     4.16321    0.01992     6.18208
      C   12   -0.25604      1.99875     4.22719    0.03011     6.25604
      C   13   -0.16645      1.99900     4.14906    0.01838     6.16645
      C   14   -0.02571      1.99911     4.00691    0.01969     6.02571
      C   15   -0.16655      1.99900     4.14917    0.01837     6.16655
      C   16   -0.25576      1.99875     4.22691    0.03010     6.25576
      H   17    0.26268      0.00000     0.73616    0.00116     0.73732
      H   18    0.24231      0.00000     0.75524    0.00245     0.75769
      H   19    0.24227      0.00000     0.75528    0.00245     0.75773
      F   20   -0.45209      1.99995     7.44118    0.01096     9.45209
      F   21   -0.47172      1.99995     7.46065    0.01112     9.47172
      F   22   -0.47253      1.99995     7.46157    0.01101     9.47253
      F   23   -0.47244      1.99995     7.46148    0.01101     9.47244
      F   24   -0.47358      1.99995     7.46267    0.01095     9.47358
      F   25   -0.45203      1.99995     7.44111    0.01096     9.45203
      S   26    2.47424      9.99860     3.27456    0.25260    13.52576
      F   27   -0.47362      1.99995     7.46271    0.01095     9.47362
      F   28   -0.47155      1.99995     7.46047    0.01113     9.47155
      S   29    2.47426      9.99860     3.27448    0.25266    13.52574
      F   30   -0.47167      1.99995     7.46059    0.01113     9.47167
      F   31   -0.47183      1.99995     7.46075    0.01112     9.47183
      H   32    0.21803      0.00000     0.78097    0.00100     0.78197
 =======================================================================
   * Total *    0.00000     63.98533   137.14101    0.87366   202.00000

                      1                      2                      3
                      A                      A                      A
 Frequencies --     32.8963                33.3165                47.8791
 Red. masses --     15.2159                18.2932                 3.8176
 Frc consts  --      0.0097                 0.0120                 0.0052
 IR Inten    --      0.0367                 0.0038                 0.0128

                      4                      5                      6
                      A                      A                      A
 Frequencies --     55.8198                63.5915                86.1421
 Red. masses --      8.7477                 7.1669                14.9602
 Frc consts  --      0.0161                 0.0171                 0.0654
 IR Inten    --      0.1597                 0.1056                 0.7331

                      7                      8                      9
                      A                      A                      A
 Frequencies --    124.4898               134.7012               176.1258
 Red. masses --      5.7959                 9.6295                10.3683
 Frc consts  --      0.0529                 0.1029                 0.1895
 IR Inten    --      0.4624                 0.0073                 0.2476

                     10                     11                     12
                      A                      A                      A
 Frequencies --    200.6442               224.0994               225.3438
 Red. masses --     17.0082                10.3144                 6.2582
 Frc consts  --      0.4034                 0.3052                 0.1872
 IR Inten    --      0.6541                 0.2012                 0.2869

                     13                     14                     15
                      A                      A                      A
 Frequencies --    284.0444               284.0898               303.1473
 Red. masses --      4.5972                 5.3251                 9.3121
 Frc consts  --      0.2185                 0.2532                 0.5042
 IR Inten    --      0.3556                 0.0254                 0.4785

                     16                     17                     18
                      A                      A                      A
 Frequencies --    353.8130               354.1968               364.4437
 Red. masses --     18.9077                18.8051                 9.1168
 Frc consts  --      1.3946                 1.3900                 0.7134
 IR Inten    --      0.0025                 0.0008                 2.6545

                     19                     20                     21
                      A                      A                      A
 Frequencies --    375.0130               402.4809               406.9792
 Red. masses --      8.8352                10.8133                 6.9020
 Frc consts  --      0.7321                 1.0320                 0.6736
 IR Inten    --      4.4230                 0.0106                 1.1744

                     22                     23                     24
                      A                      A                      A
 Frequencies --    417.7094               437.3831               458.0017
 Red. masses --      2.9703                10.7444                12.6111
 Frc consts  --      0.3054                 1.2110                 1.5586
 IR Inten    --      0.4007                 1.1747                 0.1547

                     25                     26                     27
                      A                      A                      A
 Frequencies --    483.0145               489.0301               489.3531
 Red. masses --      5.7209                18.9541                17.1659
 Frc consts  --      0.7864                 2.6707                 2.4219
 IR Inten    --      4.2033                 0.0343                 0.0298

                     28                     29                     30
                      A                      A                      A
 Frequencies --    548.1491               571.1468               578.7960
 Red. masses --      4.9430                15.6236                14.9151
 Frc consts  --      0.8751                 3.0028                 2.9439
 IR Inten    --      2.5806                 0.0068                14.3326

                     31                     32                     33
                      A                      A                      A
 Frequencies --    585.1702               600.8058               613.0091
 Red. masses --     19.4674                 9.6709                18.7395
 Frc consts  --      3.9276                 2.0568                 4.1490
 IR Inten    --     14.9234                 3.7734               158.0979

                     34                     35                     36
                      A                      A                      A
 Frequencies --    621.0747               627.1096               628.0655
 Red. masses --     14.3753                 7.2148                18.5779
 Frc consts  --      3.2670                 1.6717                 4.3177
 IR Inten    --     66.3892                 2.8938                 0.2997

                     37                     38                     39
                      A                      A                      A
 Frequencies --    629.6522               644.3274               645.4785
 Red. masses --     11.3536                 5.2469                 8.5170
 Frc consts  --      2.6521                 1.2834                 2.0907
 IR Inten    --      0.2855                 6.8571                 1.4310

                     40                     41                     42
                      A                      A                      A
 Frequencies --    650.1756               691.6555               701.2051
 Red. masses --      7.6971                17.2918                18.7370
 Frc consts  --      1.9171                 4.8738                 5.4280
 IR Inten    --      0.0118                69.3213                18.2665

                     43                     44                     45
                      A                      A                      A
 Frequencies --    723.0109               725.0666               764.4953
 Red. masses --      1.9181                 1.9526                 9.0468
 Frc consts  --      0.5908                 0.6048                 3.1153
 IR Inten    --      5.9451                43.4491               106.2821

                     46                     47                     48
                      A                      A                      A
 Frequencies --    797.0014               814.0492               877.9772
 Red. masses --      1.9709                 8.3299                 1.2480
 Frc consts  --      0.7376                 3.2523                 0.5668
 IR Inten    --     22.7940                85.4136                 0.7834

                     49                     50                     51
                      A                      A                      A
 Frequencies --    907.5302               909.3749               911.3821
 Red. masses --     17.2315                23.3446                23.1387
 Frc consts  --      8.3617                11.3743                11.3238
 IR Inten    --     13.7322                 8.1371                44.3928

                     52                     53                     54
                      A                      A                      A
 Frequencies --    916.5788               924.7674               932.5627
 Red. masses --     22.4086                19.9908                14.0827
 Frc consts  --     11.0918                10.0727                 7.2159
 IR Inten    --    657.1660               651.1123               733.4367

                     55                     56                     57
                      A                      A                      A
 Frequencies --    942.3912               948.0025               968.1399
 Red. masses --      1.6166                 1.3952                 1.3717
 Frc consts  --      0.8459                 0.7387                 0.7575
 IR Inten    --     52.1245                 8.7281                 0.1629

                     58                     59                     60
                      A                      A                      A
 Frequencies --    970.7260              1004.3341              1019.0393
 Red. masses --      1.5776                 1.3922                 6.3533
 Frc consts  --      0.8759                 0.8274                 3.8872
 IR Inten    --     13.0853                 0.0803                 7.1605

                     61                     62                     63
                      A                      A                      A
 Frequencies --   1024.8532              1026.0844              1063.5364
 Red. masses --      5.4598                 1.3073                 2.5612
 Frc consts  --      3.3787                 0.8109                 1.7068
 IR Inten    --      0.0157                 0.1906                12.4259

                     64                     65                     66
                      A                      A                      A
 Frequencies --   1112.2679              1119.2815              1167.6667
 Red. masses --      2.6701                 1.5259                 1.4830
 Frc consts  --      1.9463                 1.1263                 1.1913
 IR Inten    --     12.1934                 3.4604                38.7504

                     67                     68                     69
                      A                      A                      A
 Frequencies --   1179.8628              1182.0200              1214.0290
 Red. masses --      1.9381                 1.1569                 1.1306
 Frc consts  --      1.5896                 0.9523                 0.9818
 IR Inten    --     19.8215                 0.7990                 0.1479

                     70                     71                     72
                      A                      A                      A
 Frequencies --   1286.4827              1315.1145              1328.5285
 Red. masses --      2.3285                 4.3282                 3.4367
 Frc consts  --      2.2706                 4.4105                 3.5738
 IR Inten    --      3.9224                 0.1498                 3.7227

                     73                     74                     75
                      A                      A                      A
 Frequencies --   1340.8273              1362.8476              1467.4648
 Red. masses --      1.6947                 1.5367                 2.7370
 Frc consts  --      1.7951                 1.6816                 3.4726
 IR Inten    --      1.5497                 0.6140                11.7688

                     76                     77                     78
                      A                      A                      A
 Frequencies --   1500.0006              1504.9597              1551.6643
 Red. masses --      3.0815                 2.6507                 2.7129
 Frc consts  --      4.0850                 3.5372                 3.8484
 IR Inten    --     54.0743                 1.9777                 0.6735

                     79                     80                     81
                      A                      A                      A
 Frequencies --   1647.1014              1662.3814              1678.7619
 Red. masses --      5.5442                 6.6941                 6.5859
 Frc consts  --      8.8620                10.8994                10.9357
 IR Inten    --      4.4738                 0.3708                15.0669

                     82                     83                     84
                      A                      A                      A
 Frequencies --   1679.5306              3200.7968              3203.4041
 Red. masses --      6.2460                 1.0865                 1.0884
 Frc consts  --     10.3808                 6.5584                 6.5808
 IR Inten    --      3.7089                 3.7589                 0.1901

                     85                     86                     87
                      A                      A                      A
 Frequencies --   3213.3462              3220.9193              3231.2271
 Red. masses --      1.0910                 1.0948                 1.0986
 Frc consts  --      6.6372                 6.6916                 6.7579
 IR Inten    --      2.2975                 8.3813                 7.1562

                     88                     89                     90
                      A                      A                      A
 Frequencies --   3240.4211              3240.5943              3260.4933
 Red. masses --      1.0911                 1.0919                 1.0924
 Frc consts  --      6.7503                 6.7558                 6.8422
 IR Inten    --      3.0793                 0.6108                12.7897

 - Thermochemistry -
 -------------------
 Temperature   298.150 Kelvin.  Pressure   1.00000 Atm.
 Atom     1 has atomic number  6 and mass  12.00000

 Molecular mass:   405.99078 amu.
 Principal axes and moments of inertia in atomic units:
                           1         2         3
     Eigenvalues --  9675.452579705.38570**********
           X           -0.03164   0.99950  -0.00001
           Y            0.99949   0.03164   0.00467
           Z           -0.00467  -0.00014   0.99999
 This molecule is an asymmetric top.
 Rotational symmetry number  1.
 Warning -- assumption of classical behavior for rotation
           may cause significant error
 Rotational temperatures (Kelvin)      0.00895     0.00892     0.00487
 Rotational constants (GHZ):           0.18653     0.18595     0.10153
 Zero-point vibrational energy     525917.1 (Joules/Mol)
                                  125.69720 (Kcal/Mol)
 Warning -- explicit consideration of  33 degrees of freedom as
           vibrations may cause significant error
 Vibrational temperatures:     47.33    47.93    68.89    80.31    91.49
          (Kelvin)            123.94   179.11   193.81   253.41   288.68
                              322.43   324.22   408.68   408.74   436.16
                              509.06   509.61   524.35   539.56   579.08
                              585.55   600.99   629.30   658.96   694.95
                              703.61   704.07   788.66   821.75   832.76
                              841.93   864.43   881.98   893.59   902.27
                              903.65   905.93   927.04   928.70   935.46
                              995.14  1008.88  1040.25  1043.21  1099.94
                             1146.71  1171.24  1263.21  1305.73  1308.39
                             1311.28  1318.75  1330.53  1341.75  1355.89
                             1363.96  1392.94  1396.66  1445.01  1466.17
                             1474.54  1476.31  1530.19  1600.31  1610.40
                             1680.01  1697.56  1700.66  1746.72  1850.96
                             1892.16  1911.46  1929.15  1960.83  2111.35
                             2158.17  2165.30  2232.50  2369.81  2391.80
                             2415.36  2416.47  4605.23  4608.98  4623.29
                             4634.18  4649.02  4662.24  4662.49  4691.12

 Zero-point correction=                           0.200311 (Hartree/Particle)
 Thermal correction to Energy=                    0.220096
 Thermal correction to Enthalpy=                  0.221040
 Thermal correction to Gibbs Free Energy=         0.150785
 Sum of electronic and zero-point Energies=          -2256.670579
 Sum of electronic and thermal Energies=             -2256.650794
 Sum of electronic and thermal Enthalpies=           -2256.649850
 Sum of electronic and thermal Free Energies=        -2256.720105

                     E (Thermal)             CV                S
                      KCal/Mol        Cal/Mol-Kelvin    Cal/Mol-Kelvin
 Total                  138.112             78.904            147.863
 Electronic               0.000              0.000              0.000
 Translational            0.889              2.981             43.895
 Rotational               0.889              2.981             35.766
 Vibrational            136.335             72.942             68.202
 Vibration     1          0.594              1.983              5.647
 Vibration     2          0.594              1.983              5.621
 Vibration     3          0.595              1.978              4.903
 Vibration     4          0.596              1.975              4.600
 Vibration     5          0.597              1.972              4.343
 Vibration     6          0.601              1.959              3.746
 Vibration     7          0.610              1.929              3.029
 Vibration     8          0.613              1.919              2.878
 Vibration     9          0.628              1.872              2.369
 Vibration    10          0.638              1.839              2.127
 Vibration    11          0.649              1.804              1.926
 Vibration    12          0.650              1.802              1.916
 Vibration    13          0.682              1.703              1.509
 Vibration    14          0.682              1.703              1.509
 Vibration    15          0.695              1.668              1.399
 Vibration    16          0.730              1.567              1.149
 Vibration    17          0.730              1.567              1.147
 Vibration    18          0.738              1.545              1.103
 Vibration    19          0.746              1.523              1.059
 Vibration    20          0.768              1.465              0.954
 Vibration    21          0.772              1.455              0.937
 Vibration    22          0.781              1.432              0.900
 Vibration    23          0.798              1.389              0.835
 Vibration    24          0.816              1.343              0.772
 Vibration    25          0.839              1.288              0.702
 Vibration    26          0.845              1.274              0.686
 Vibration    27          0.845              1.274              0.685
 Vibration    28          0.903              1.144              0.548
 Vibration    29          0.927              1.094              0.502
 Vibration    30          0.935              1.077              0.488
 Vibration    31          0.942              1.063              0.476
 Vibration    32          0.959              1.030              0.448
 Vibration    33          0.972              1.004              0.428

 Optimization completed.
    -- Stationary point found.

 1\1\GINC-SE090\Freq\RM062X\def2TZVP\C12H8F10S2\JREID03\01-Nov-2023\0\\
 #N Geom=AllCheck Guess=TCheck SCRF=Check GenChk RM062X/def2TZVP Freq\\
 Structure697\\0,1\C,-2.707153655,-0.1384662943,0.5271122767\C,-2.13619
 36326,0.0650111662,-0.7285302916\C,-0.7621654029,0.1855190354,-0.86572
 07443\C,0.0593708401,0.1072082034,0.2502843578\C,-0.5001958293,-0.0937
 339411,1.5044863373\C,-1.8739015748,-0.2172297205,1.6422447354\H,-0.33
 19685182,0.3338159352,-1.8474502374\H,0.1337561351,-0.1475132466,2.379
 7380896\H,-2.7697304057,0.102985103,-1.6062275558\H,-2.3059570381,-0.3

 Normal termination of Gaussian 16 at Wed Nov  1 01:06:32 2023.
