 Gaussian 16, Revision C.01,
 Gaussian 16:  ES64L-G16RevC.01  3-Jul-2019

 -----------------------------------------
 # opt freq=noraman m062x def2tzvp pop=nbo
 -----------------------------------------

 ------------
 Structure697
 ------------
 Symbolic Z-matrix:
 Charge =  0 Multiplicity = 1

 SCF Done:  E(RM062X) =  -1368.49144506     A.U. after   14 cycles
 SCF Done:  E(RM062X) =  -1368.49568307     A.U. after   11 cycles
 SCF Done:  E(RM062X) =  -1368.49591773     A.U. after   10 cycles
 SCF Done:  E(RM062X) =  -1368.49595438     A.U. after    8 cycles
 SCF Done:  E(RM062X) =  -1368.49595657     A.U. after    8 cycles
 SCF Done:  E(RM062X) =  -1368.49595861     A.U. after    9 cycles
 SCF Done:  E(RM062X) =  -1368.49596502     A.U. after   10 cycles
 SCF Done:  E(RM062X) =  -1368.49594772     A.U. after   12 cycles
 SCF Done:  E(RM062X) =  -1368.49597574     A.U. after   11 cycles
 SCF Done:  E(RM062X) =  -1368.49596665     A.U. after   10 cycles
 SCF Done:  E(RM062X) =  -1368.49598820     A.U. after   10 cycles
 SCF Done:  E(RM062X) =  -1368.49598875     A.U. after    7 cycles
 SCF Done:  E(RM062X) =  -1368.49598674     A.U. after   11 cycles
 SCF Done:  E(RM062X) =  -1368.49593145     A.U. after   12 cycles
 SCF Done:  E(RM062X) =  -1368.49598984     A.U. after   10 cycles
 SCF Done:  E(RM062X) =  -1368.49599480     A.U. after   10 cycles
 SCF Done:  E(RM062X) =  -1368.49599545     A.U. after    9 cycles
 SCF Done:  E(RM062X) =  -1368.49599557     A.U. after    7 cycles
 SCF Done:  E(RM062X) =  -1368.49599557     A.U. after    6 cycles
 Optimization completed.
    -- Stationary point found.
 Normal termination of Gaussian 16 at Wed Nov  1 01:27:02 2023.

 --------------------------------------------------------------------
 #N Geom=AllCheck Guess=TCheck SCRF=Check GenChk RM062X/def2TZVP Freq
 --------------------------------------------------------------------

 Structure from the checkpoint file:  "ph3ph35cf3_3_1_m062x.chk"
 ------------
 Structure697
 ------------
 Charge =  0 Multiplicity = 1

                         Standard orientation:
 ---------------------------------------------------------------------
 Center     Atomic      Atomic             Coordinates (Angstroms)
 Number     Number       Type             X           Y           Z
 ---------------------------------------------------------------------
      1          6           0       -4.924291   -0.000000    0.000000
      2          6           0       -5.636810    1.198270   -0.049964
      3          6           0       -7.023132    1.198594   -0.051125
      4          6           0       -7.721285    0.000000    0.000001
      5          6           0       -7.023132   -1.198594    0.051126
      6          6           0       -5.636811   -1.198270    0.049964
      7          1           0       -5.098463    2.135776   -0.114403
      8          1           0       -7.559713    2.137254   -0.099898
      9          1           0       -8.803360    0.000000    0.000001
     10          1           0       -7.559713   -2.137254    0.099900
     11          1           0       -5.098464   -2.135776    0.114403
     12          6           0       -0.628186   -0.000001   -0.000001
     13          6           0       -1.342796   -0.966838   -0.706129
     14          6           0       -2.726780   -0.965522   -0.706508
     15          6           0       -3.444243   -0.000001   -0.000000
     16          6           0       -2.726779    0.965521    0.706507
     17          6           0       -1.342796    0.966837    0.706128
     18          1           0       -3.261018   -1.705365   -1.289179
     19          1           0       -3.261018    1.705364    1.289178
     20          1           0       -0.810211   -1.707513   -1.289950
     21          1           0       -0.810210    1.707512    1.289948
     22          6           0        3.661997    0.000000   -0.000001
     23          6           0        2.952054    1.189549   -0.025244
     24          6           0        1.566448    1.195531   -0.028040
     25          6           0        0.851001   -0.000000   -0.000001
     26          6           0        1.566449   -1.195532    0.028039
     27          6           0        2.952054   -1.189549    0.025243
     28          1           0        4.742528    0.000000   -0.000000
     29          1           0        1.037206    2.139361   -0.071982
     30          1           0        1.037207   -2.139361    0.071981
     31          6           0        3.677210    2.505574   -0.100565
     32          9           0        3.623798    3.023809   -1.334613
     33          9           0        3.136123    3.412453    0.721572
     34          9           0        4.966794    2.389626    0.223241
     35          6           0        3.677211   -2.505574    0.100565
     36          9           0        3.623811   -3.023802    1.334617
     37          9           0        3.136118   -3.412458   -0.721562
     38          9           0        4.966793   -2.389627   -0.223253
 ---------------------------------------------------------------------

 SCF Done:  E(RM062X) =  -1368.49599557     A.U. after    1 cycles

 The electronic state is 1-A.
 Alpha  occ. eigenvalues --  -25.28870 -25.28870 -25.28634 -25.28634 -25.28371
 Alpha  occ. eigenvalues --  -25.28371 -10.80577 -10.80577 -10.59056 -10.59054
 Alpha  occ. eigenvalues --  -10.58666 -10.58319 -10.58051 -10.58045 -10.57120
 Alpha  occ. eigenvalues --  -10.56715 -10.56207 -10.56009 -10.56004 -10.55713
 Alpha  occ. eigenvalues --  -10.55709 -10.55123 -10.55122 -10.55043 -10.55017
 Alpha  occ. eigenvalues --  -10.54920  -1.47675  -1.47672  -1.38471  -1.38468
 Alpha  occ. eigenvalues --   -1.38020  -1.38020  -1.01941  -0.99325  -0.97062
 Alpha  occ. eigenvalues --   -0.92616  -0.92189  -0.87867  -0.86534  -0.85317
 Alpha  occ. eigenvalues --   -0.83322  -0.82386  -0.81817  -0.75264  -0.75052
 Alpha  occ. eigenvalues --   -0.72743  -0.71885  -0.70297  -0.70118  -0.70078
 Alpha  occ. eigenvalues --   -0.70057  -0.68818  -0.68425  -0.66284  -0.63437
 Alpha  occ. eigenvalues --   -0.62113  -0.60667  -0.59150  -0.58540  -0.58385
 Alpha  occ. eigenvalues --   -0.58221  -0.57421  -0.56806  -0.55730  -0.54734
 Alpha  occ. eigenvalues --   -0.54286  -0.54115  -0.54001  -0.53083  -0.52387
 Alpha  occ. eigenvalues --   -0.52168  -0.52165  -0.51971  -0.51110  -0.50872
 Alpha  occ. eigenvalues --   -0.50086  -0.49773  -0.49456  -0.47974  -0.46542
 Alpha  occ. eigenvalues --   -0.46388  -0.44634  -0.44302  -0.43288  -0.42220
 Alpha  occ. eigenvalues --   -0.40761  -0.40598  -0.37059  -0.35051  -0.33029
 Alpha  occ. eigenvalues --   -0.32788  -0.31955  -0.28610
 Alpha virt. eigenvalues --   -0.03923  -0.02765   0.00194   0.00300   0.01204
 Alpha virt. eigenvalues --    0.04689   0.07274   0.07813   0.08478   0.09382
 Alpha virt. eigenvalues --    0.10036   0.10817   0.11549   0.11876   0.12607

 Mulliken charges:
               1
     1  C    0.114157
     2  C   -0.215314
     3  C   -0.151403
     4  C   -0.146238
     5  C   -0.151403
     6  C   -0.215314
     7  H    0.168451
     8  H    0.145970
     9  H    0.145426
    10  H    0.145970
    11  H    0.168451
    12  C    0.102795
    13  C   -0.214898
    14  C   -0.218309
    15  C    0.103949
    16  C   -0.218309
    17  C   -0.214898
    18  H    0.173089
    19  H    0.173089
    20  H    0.174499
    21  H    0.174500
    22  C   -0.178197
    23  C   -0.008832
    24  C   -0.257287
    25  C    0.122250
    26  C   -0.257287
    27  C   -0.008831
    28  H    0.193985
    29  H    0.195781
    30  H    0.195781
    31  C    0.507386
    32  F   -0.173119
    33  F   -0.179224
    34  F   -0.175854
    35  C    0.507386
    36  F   -0.173119
    37  F   -0.179224
    38  F   -0.175854
 Sum of Mulliken charges =  -0.00000

 Dipole moment (field-independent basis, Debye):
    X=             -3.7725    Y=             -0.0000    Z=             -0.0000  Tot=              3.7725
 Quadrupole moment (field-independent basis, Debye-Ang):
   XX=           -141.5661   YY=           -148.2691   ZZ=           -151.5701
   XY=              0.0000   XZ=             -0.0000   YZ=              3.8106

  Exact polarizability:     373.238       0.000     220.743      -0.000      10.783     133.535
 Approx polarizability:     383.160       0.000     309.126      -0.000      20.364     194.630

 Summary of Natural Population Analysis:

                                       Natural Population
                Natural  -----------------------------------------------
    Atom  No    Charge         Core      Valence    Rydberg      Total
 -----------------------------------------------------------------------
      C    1   -0.05676      1.99910     4.03734    0.02033     6.05676
      C    2   -0.19533      1.99914     4.17794    0.01825     6.19533
      C    3   -0.20302      1.99923     4.18525    0.01854     6.20302
      C    4   -0.20927      1.99922     4.19160    0.01845     6.20927
      C    5   -0.20302      1.99923     4.18525    0.01854     6.20302
      C    6   -0.19533      1.99914     4.17794    0.01825     6.19533
      H    7    0.21437      0.00000     0.78437    0.00125     0.78563
      H    8    0.21520      0.00000     0.78374    0.00105     0.78480
      H    9    0.21514      0.00000     0.78384    0.00103     0.78486
      H   10    0.21520      0.00000     0.78374    0.00105     0.78480
      H   11    0.21437      0.00000     0.78437    0.00125     0.78563
      C   12   -0.06659      1.99909     4.04787    0.01963     6.06659
      C   13   -0.18556      1.99915     4.16847    0.01794     6.18556
      C   14   -0.18803      1.99915     4.17074    0.01814     6.18803
      C   15   -0.03951      1.99910     4.02041    0.02001     6.03951
      C   16   -0.18803      1.99915     4.17074    0.01814     6.18803
      C   17   -0.18556      1.99915     4.16847    0.01794     6.18556
      H   18    0.21892      0.00000     0.77988    0.00120     0.78108
      H   19    0.21892      0.00000     0.77988    0.00120     0.78108
      H   20    0.21686      0.00000     0.78197    0.00117     0.78314
      H   21    0.21686      0.00000     0.78197    0.00117     0.78314
      C   22   -0.16702      1.99907     4.15038    0.01758     6.16702
      C   23   -0.13777      1.99899     4.11462    0.02415     6.13777
      C   24   -0.15396      1.99907     4.13760    0.01729     6.15396
      C   25   -0.03200      1.99912     4.01268    0.02020     6.03200
      C   26   -0.15396      1.99907     4.13760    0.01729     6.15396
      C   27   -0.13777      1.99899     4.11462    0.02415     6.13777
      H   28    0.25105      0.00000     0.74776    0.00119     0.74895
      H   29    0.23399      0.00000     0.76473    0.00129     0.76601
      H   30    0.23399      0.00000     0.76473    0.00129     0.76601
      C   31    0.97584      1.99917     2.97515    0.04984     5.02416
      F   32   -0.31969      1.99992     7.31096    0.00881     9.31969
      F   33   -0.32105      1.99992     7.31223    0.00890     9.32105
      F   34   -0.31830      1.99992     7.30925    0.00913     9.31830
      C   35    0.97584      1.99917     2.97515    0.04984     5.02416
      F   36   -0.31969      1.99992     7.31096    0.00881     9.31969
      F   37   -0.32105      1.99992     7.31223    0.00890     9.32105
      F   38   -0.31830      1.99992     7.30925    0.00913     9.31830
 =======================================================================
   * Total *    0.00000     51.98201   133.50568    0.51231   186.00000

                      1                      2                      3
                      A                      A                      A
 Frequencies --     10.8359                12.6616                28.9174
 Red. masses --     18.4583                17.8645                 7.3285
 Frc consts  --      0.0013                 0.0017                 0.0036
 IR Inten    --      0.0420                 0.0277                 0.0242

                      4                      5                      6
                      A                      A                      A
 Frequencies --     32.6442                44.4996                81.4226
 Red. masses --      4.0522                 8.0101                 3.7950
 Frc consts  --      0.0025                 0.0093                 0.0148
 IR Inten    --      0.0109                 0.1022                 0.0902

                      7                      8                      9
                      A                      A                      A
 Frequencies --     81.5055               104.1229               111.2281
 Red. masses --      7.8846                13.2825                 5.9786
 Frc consts  --      0.0309                 0.0848                 0.0436
 IR Inten    --      0.8372                 1.0583                 0.1515

                     10                     11                     12
                      A                      A                      A
 Frequencies --    131.8492               153.0419               191.0586
 Red. masses --      5.7713                 7.4976                 9.1438
 Frc consts  --      0.0591                 0.1035                 0.1967
 IR Inten    --      0.0076                 0.0082                 0.0858

                     13                     14                     15
                      A                      A                      A
 Frequencies --    211.0875               238.9875               280.8309
 Red. masses --      5.7345                 5.6443                14.3112
 Frc consts  --      0.1505                 0.1899                 0.6650
 IR Inten    --      0.1480                 0.3426                 1.5865

                     16                     17                     18
                      A                      A                      A
 Frequencies --    299.3253               318.2880               332.0007
 Red. masses --      9.4209                 5.3360                 4.7185
 Frc consts  --      0.4973                 0.3185                 0.3064
 IR Inten    --      0.9945                 0.0050                 0.0653

                     19                     20                     21
                      A                      A                      A
 Frequencies --    363.6909               370.0204               387.6359
 Red. masses --      6.2302                 8.9065                 7.3725
 Frc consts  --      0.4855                 0.7185                 0.6527
 IR Inten    --      1.2147                 4.0381                 0.5366

                     22                     23                     24
                      A                      A                      A
 Frequencies --    416.3018               424.3420               439.0543
 Red. masses --      2.9326                 3.1416                 6.7666
 Frc consts  --      0.2994                 0.3333                 0.7685
 IR Inten    --      1.3489                 0.1896                 5.8630

                     25                     26                     27
                      A                      A                      A
 Frequencies --    442.6719               491.9999               510.8943
 Red. masses --      7.1153                 5.3481                 4.3365
 Frc consts  --      0.8215                 0.7627                 0.6669
 IR Inten    --      0.1025                 2.4093                11.7748

                     28                     29                     30
                      A                      A                      A
 Frequencies --    515.5211               543.5980               576.8060
 Red. masses --     11.8212                 7.4339                 3.0856
 Frc consts  --      1.8510                 1.2943                 0.6049
 IR Inten    --      0.1836                 0.0754                 4.6865

                     31                     32                     33
                      A                      A                      A
 Frequencies --    582.2146               626.7435               630.5199
 Red. masses --     15.4080                 6.4784                 6.5516
 Frc consts  --      3.0773                 1.4993                 1.5346
 IR Inten    --      0.5839                 0.2319                 0.0006

                     34                     35                     36
                      A                      A                      A
 Frequencies --    635.9970               648.1042               667.5143
 Red. masses --      7.4866                 5.5114                 5.4047
 Frc consts  --      1.7842                 1.3640                 1.4189
 IR Inten    --      0.6905                 0.7928                 0.8601

                     37                     38                     39
                      A                      A                      A
 Frequencies --    691.2300               698.3069               724.0798
 Red. masses --      7.3470                12.3903                 1.7461
 Frc consts  --      2.0683                 3.5598                 0.5394
 IR Inten    --      1.7368                49.3798                37.5834

                     40                     41                     42
                      A                      A                      A
 Frequencies --    726.5343               734.8880               764.6924
 Red. masses --      9.6170                 2.0714                 2.7204
 Frc consts  --      2.9909                 0.6591                 0.9373
 IR Inten    --     38.3100                17.1944                18.5836

                     43                     44                     45
                      A                      A                      A
 Frequencies --    769.1989               798.9408               861.8968
 Red. masses --      7.8388                 2.1677                 7.2527
 Frc consts  --      2.7326                 0.8152                 3.1744
 IR Inten    --      0.0274                38.7364                15.6187

                     46                     47                     48
                      A                      A                      A
 Frequencies --    873.5025               874.0171               877.8409
 Red. masses --      1.2442                 2.9489                 1.2647
 Frc consts  --      0.5593                 1.3272                 0.5742
 IR Inten    --      0.2207                40.6957                 1.2626

                     49                     50                     51
                      A                      A                      A
 Frequencies --    884.8504               950.0321               955.6874
 Red. masses --      2.7747                 1.7430                 1.4099
 Frc consts  --      1.2800                 0.9269                 0.7587
 IR Inten    --     13.9445                31.1107                 2.7880

                     52                     53                     54
                      A                      A                      A
 Frequencies --    959.2821               964.4547              1000.6828
 Red. masses --      1.5006                 1.3987                 1.3712
 Frc consts  --      0.8136                 0.7666                 0.8090
 IR Inten    --      0.9178                 0.2112                 1.4883

                     55                     56                     57
                      A                      A                      A
 Frequencies --   1001.2852              1003.3727              1019.9490
 Red. masses --      1.3957                 1.3943                 5.3507
 Frc consts  --      0.8244                 0.8270                 3.2796
 IR Inten    --      0.3390                 0.8069                 1.8874

                     58                     59                     60
                      A                      A                      A
 Frequencies --   1019.9529              1022.0527              1030.9474
 Red. masses --      1.3301                 6.0685                 4.8556
 Frc consts  --      0.8153                 3.7349                 3.0406
 IR Inten    --      0.1031                 2.4566                 4.8105

                     61                     62                     63
                      A                      A                      A
 Frequencies --   1053.1490              1076.1995              1101.4072
 Red. masses --      3.4433                 1.9422                 3.0389
 Frc consts  --      2.2501                 1.3253                 2.1720
 IR Inten    --      6.5621                 0.1357                47.5358

                     64                     65                     66
                      A                      A                      A
 Frequencies --   1116.2662              1142.8044              1145.3479
 Red. masses --      1.5185                 2.4290                 1.6480
 Frc consts  --      1.1148                 1.8691                 1.2737
 IR Inten    --      4.1257                 4.9017                20.9600

                     67                     68                     69
                      A                      A                      A
 Frequencies --   1150.1120              1179.6587              1207.9371
 Red. masses --      1.3934                 1.1517                 1.1192
 Frc consts  --      1.0859                 0.9443                 0.9622
 IR Inten    --      1.7077                 0.0163                 0.8610

                     70                     71                     72
                      A                      A                      A
 Frequencies --   1211.7293              1213.6104              1221.1651
 Red. masses --     12.9818                12.4805                 1.1223
 Frc consts  --     11.2305                10.8303                 0.9861
 IR Inten    --      1.7614               498.2072                 0.0207

                     73                     74                     75
                      A                      A                      A
 Frequencies --   1234.1380              1247.6076              1281.5859
 Red. masses --      8.4990                 5.7722                 3.5879
 Frc consts  --      7.6269                 5.2936                 3.4721
 IR Inten    --    130.6231               232.0550                 1.9946

                     76                     77                     78
                      A                      A                      A
 Frequencies --   1298.1826              1299.4800              1313.3050
 Red. masses --      2.8229                 2.6132                 4.0207
 Frc consts  --      2.8029                 2.5999                 4.0859
 IR Inten    --    131.2681                 4.6013                64.1764

                     79                     80                     81
                      A                      A                      A
 Frequencies --   1321.7726              1325.2499              1338.4625
 Red. masses --      4.0971                 3.2161                 1.4845
 Frc consts  --      4.2174                 3.3280                 1.5669
 IR Inten    --    468.8935                 0.7461                18.5058

                     82                     83                     84
                      A                      A                      A
 Frequencies --   1353.7211              1358.2565              1427.4357
 Red. masses --      2.0749                 1.4489                 7.8762
 Frc consts  --      2.2403                 1.5749                 9.4554
 IR Inten    --      2.7153                 4.3867               326.3368

                     85                     86                     87
                      A                      A                      A
 Frequencies --   1444.4705              1489.9515              1506.3643
 Red. masses --      2.9205                 2.6826                 3.8074
 Frc consts  --      3.5902                 3.5087                 5.0903
 IR Inten    --      4.5893                11.0815                 2.4300

                     88                     89                     90
                      A                      A                      A
 Frequencies --   1518.5666              1539.2254              1575.6550
 Red. masses --      3.7328                 2.4545                 3.1025
 Frc consts  --      5.0717                 3.4262                 4.5381
 IR Inten    --     24.8625                11.7646                 1.1487

                     91                     92                     93
                      A                      A                      A
 Frequencies --   1628.0340              1656.0251              1678.7155
 Red. masses --      6.1527                 6.3100                 6.0067
 Frc consts  --      9.6083                10.1955                 9.9733
 IR Inten    --      1.4873                 0.9566                 5.8230

                     94                     95                     96
                      A                      A                      A
 Frequencies --   1686.3019              1688.7049              1689.0583
 Red. masses --      6.2609                 6.5903                 6.3060
 Frc consts  --     10.4896                11.0730                10.5998
 IR Inten    --     17.1847                 0.9986                 6.7718

                     97                     98                     99
                      A                      A                      A
 Frequencies --   3198.7203              3200.2003              3200.8898
 Red. masses --      1.0866                 1.0879                 1.0871
 Frc consts  --      6.5503                 6.5643                 6.5621
 IR Inten    --     16.5741                 0.2315                 3.6581

                    100                    101                    102
                      A                      A                      A
 Frequencies --   3203.4972              3211.9355              3215.1555
 Red. masses --      1.0881                 1.0913                 1.0931
 Frc consts  --      6.5794                 6.6330                 6.6574
 IR Inten    --      0.2924                 2.0098                 2.7117

                    103                    104                    105
                      A                      A                      A
 Frequencies --   3216.2420              3217.7011              3219.2487
 Red. masses --      1.0923                 1.0917                 1.0941
 Frc consts  --      6.6572                 6.6593                 6.6805
 IR Inten    --      0.2329                 0.5742                 0.0000

                    106                    107                    108
                      A                      A                      A
 Frequencies --   3219.8368              3229.9168              3248.2598
 Red. masses --      1.0946                 1.0986                 1.0920
 Frc consts  --      6.6860                 6.7525                 6.7882
 IR Inten    --     14.1678                11.3955                 5.8205

 - Thermochemistry -
 -------------------
 Temperature   298.150 Kelvin.  Pressure   1.00000 Atm.
 Atom     1 has atomic number  6 and mass  12.00000

 Molecular mass:   366.08432 amu.
 Principal axes and moments of inertia in atomic units:
                           1         2         3
     Eigenvalues --  5354.35343********************
           X            1.00000   0.00000  -0.00000
           Y           -0.00000   0.99997   0.00762
           Z            0.00000  -0.00762   0.99997
 This molecule is an asymmetric top.
 Rotational symmetry number  1.
 Warning -- assumption of classical behavior for rotation
           may cause significant error
 Rotational temperatures (Kelvin)      0.01618     0.00385     0.00321
 Rotational constants (GHZ):           0.33706     0.08024     0.06688
 Zero-point vibrational energy     720432.3 (Joules/Mol)
                                  172.18745 (Kcal/Mol)
 Warning -- explicit consideration of  31 degrees of freedom as
           vibrations may cause significant error
 Vibrational temperatures:     15.59    18.22    41.61    46.97    64.02
          (Kelvin)            117.15   117.27   149.81   160.03   189.70
                              220.19   274.89   303.71   343.85   404.05
                              430.66   457.95   477.67   523.27   532.38
                              557.72   598.97   610.53   631.70   636.91
                              707.88   735.06   741.72   782.12   829.90
                              837.68   901.74   907.18   915.06   932.48
                              960.40   994.53  1004.71  1041.79  1045.32
                             1057.34  1100.22  1106.71  1149.50  1240.08
                             1256.78  1257.52  1263.02  1273.10  1366.88
                             1375.02  1380.19  1387.64  1439.76  1440.63
                             1443.63  1467.48  1467.48  1470.51  1483.30
                             1515.25  1548.41  1584.68  1606.06  1644.24
                             1647.90  1654.75  1697.27  1737.95  1743.41
                             1746.11  1756.98  1775.65  1795.03  1843.92
                             1867.80  1869.66  1889.55  1901.74  1906.74
                             1925.75  1947.70  1954.23  2053.76  2078.27
                             2143.71  2167.32  2184.88  2214.60  2267.02
                             2342.38  2382.65  2415.30  2426.21  2429.67
                             2430.18  4602.25  4604.37  4605.37  4609.12
                             4621.26  4625.89  4627.45  4629.55  4631.78
                             4632.63  4647.13  4673.52

 Zero-point correction=                           0.274398 (Hartree/Particle)
 Thermal correction to Energy=                    0.295171
 Thermal correction to Enthalpy=                  0.296116
 Thermal correction to Gibbs Free Energy=         0.219861
 Sum of electronic and zero-point Energies=          -1368.221597
 Sum of electronic and thermal Energies=             -1368.200824
 Sum of electronic and thermal Enthalpies=           -1368.199880
 Sum of electronic and thermal Free Energies=        -1368.276134

                     E (Thermal)             CV                S
                      KCal/Mol        Cal/Mol-Kelvin    Cal/Mol-Kelvin
 Total                  185.223             79.809            160.490
 Electronic               0.000              0.000              0.000
 Translational            0.889              2.981             43.586
 Rotational               0.889              2.981             36.428
 Vibrational            183.445             73.847             80.476
 Vibration     1          0.593              1.987              7.852
 Vibration     2          0.593              1.987              7.542
 Vibration     3          0.593              1.984              5.902
 Vibration     4          0.594              1.983              5.662
 Vibration     5          0.595              1.980              5.048
 Vibration     6          0.600              1.962              3.856
 Vibration     7          0.600              1.962              3.854
 Vibration     8          0.605              1.946              3.376
 Vibration     9          0.607              1.940              3.247
 Vibration    10          0.612              1.921              2.919
 Vibration    11          0.619              1.899              2.634
 Vibration    12          0.634              1.852              2.218
 Vibration    13          0.643              1.824              2.034
 Vibration    14          0.657              1.781              1.810
 Vibration    15          0.681              1.709              1.529
 Vibration    16          0.692              1.675              1.421
 Vibration    17          0.705              1.639              1.319
 Vibration    18          0.714              1.612              1.250
 Vibration    19          0.737              1.547              1.106
 Vibration    20          0.742              1.534              1.080
 Vibration    21          0.756              1.497              1.009
 Vibration    22          0.780              1.435              0.905
 Vibration    23          0.786              1.417              0.877
 Vibration    24          0.799              1.385              0.830
 Vibration    25          0.802              1.377              0.818
 Vibration    26          0.848              1.268              0.678
 Vibration    27          0.866              1.226              0.631
 Vibration    28          0.871              1.216              0.620
 Vibration    29          0.899              1.154              0.558
 Vibration    30          0.933              1.081              0.491
 Vibration    31          0.939              1.070              0.481

 Optimization completed.
    -- Stationary point found.
 Normal termination of Gaussian 16 at Wed Nov  1 05:23:40 2023.
