 Gaussian 16, Revision C.01,
 Gaussian 16:  ES64L-G16RevC.01  3-Jul-2019

 -----------------------------------------
 # opt freq=noraman m062x def2tzvp pop=nbo
 -----------------------------------------

 ------------
 Structure697
 ------------
 Symbolic Z-matrix:
 Charge =  0 Multiplicity = 1

 SCF Done:  E(RM062X) =  -800.359166968     A.U. after   18 cycles
 SCF Done:  E(RM062X) =  -800.361327165     A.U. after   17 cycles
 SCF Done:  E(RM062X) =  -800.361509730     A.U. after   17 cycles
 SCF Done:  E(RM062X) =  -800.361538190     A.U. after   15 cycles
 SCF Done:  E(RM062X) =  -800.361539379     A.U. after    7 cycles
 SCF Done:  E(RM062X) =  -800.361539534     A.U. after    7 cycles
 SCF Done:  E(RM062X) =  -800.361539581     A.U. after    6 cycles
 SCF Done:  E(RM062X) =  -800.361539805     A.U. after    8 cycles
 SCF Done:  E(RM062X) =  -800.361540395     A.U. after   16 cycles
 SCF Done:  E(RM062X) =  -800.361540850     A.U. after   13 cycles
 SCF Done:  E(RM062X) =  -800.361549756     A.U. after   14 cycles
 SCF Done:  E(RM062X) =  -800.361542828     A.U. after   14 cycles
 SCF Done:  E(RM062X) =  -800.361538470     A.U. after   14 cycles
 SCF Done:  E(RM062X) =  -800.361551427     A.U. after   13 cycles
 SCF Done:  E(RM062X) =  -800.361508645     A.U. after   16 cycles
 SCF Done:  E(RM062X) =  -800.361545176     A.U. after   14 cycles
 SCF Done:  E(RM062X) =  -800.361553163     A.U. after   14 cycles
 SCF Done:  E(RM062X) =  -800.361554169     A.U. after   14 cycles
 SCF Done:  E(RM062X) =  -800.361554568     A.U. after   14 cycles
 Optimization completed.
    -- Stationary point found.
 Normal termination of Gaussian 16 at Wed Nov  1 00:44:48 2023.

 --------------------------------------------------------------------
 #N Geom=AllCheck Guess=TCheck SCRF=Check GenChk RM062X/def2TZVP Freq
 --------------------------------------------------------------------

 Structure from the checkpoint file:  "ph4cf3_idp_2_1_m062x.chk"
 ------------
 Structure697
 ------------
 Charge =  0 Multiplicity = 1

                         Standard orientation:
 ---------------------------------------------------------------------
 Center     Atomic      Atomic             Coordinates (Angstroms)
 Number     Number       Type             X           Y           Z
 ---------------------------------------------------------------------
      1          6           0       -2.273929    0.002277   -0.000963
      2          6           0       -2.993055    1.128001   -0.402227
      3          6           0       -4.379387    1.119764   -0.400516
      4          6           0       -5.069808   -0.013791    0.005711
      5          6           0       -4.364472   -1.139373    0.408486
      6          6           0       -2.978152   -1.131761    0.403393
      7          1           0       -2.460442    2.007426   -0.742475
      8          1           0       -4.921855    1.998613   -0.724006
      9          1           0       -6.151863   -0.020007    0.008257
     10          1           0       -4.895272   -2.024434    0.734390
     11          1           0       -2.433951   -2.005197    0.740776
     12          6           0        1.995126    0.027864   -0.013491
     13          6           0        1.300411    1.155904    0.392529
     14          6           0       -0.085777    1.143582    0.394875
     15          6           0       -0.793233    0.010791   -0.003798
     16          6           0       -0.074655   -1.116628   -0.408090
     17          6           0        1.308150   -1.111188   -0.413934
     18          1           0        1.839333    2.038475    0.708664
     19          1           0       -0.626600    2.018311    0.732477
     20          1           0       -0.608286   -1.995901   -0.745269
     21          1           0        1.857508   -1.984876   -0.740713
     22          6           0        3.495910    0.000295    0.002223
     23          9           0        3.994209   -0.526401   -1.124385
     24          9           0        4.025599    1.219493    0.139375
     25          9           0        3.966709   -0.747184    1.011979
 ---------------------------------------------------------------------

 SCF Done:  E(RM062X) =  -800.361554568     A.U. after    1 cycles

 The electronic state is 1-A.
 Alpha  occ. eigenvalues --  -25.27873 -25.27549 -25.27327 -10.79417 -10.57281
 Alpha  occ. eigenvalues --  -10.57104 -10.56465 -10.56443 -10.56337 -10.55958
 Alpha  occ. eigenvalues --  -10.55919 -10.55245 -10.55241 -10.55149 -10.55118
 Alpha  occ. eigenvalues --  -10.55027  -1.46569  -1.37396  -1.36910  -0.99860
 Alpha  occ. eigenvalues --   -0.97317  -0.90982  -0.86832  -0.85451  -0.85403
 Alpha  occ. eigenvalues --   -0.80202  -0.73561  -0.72784  -0.69812  -0.69002
 Alpha  occ. eigenvalues --   -0.68467  -0.67950  -0.65997  -0.61670  -0.57717
 Alpha  occ. eigenvalues --   -0.57393  -0.56557  -0.55279  -0.54405  -0.53176
 Alpha  occ. eigenvalues --   -0.53079  -0.52402  -0.51919  -0.51158  -0.50642
 Alpha  occ. eigenvalues --   -0.49761  -0.48704  -0.46701  -0.44745  -0.44061
 Alpha  occ. eigenvalues --   -0.42871  -0.40950  -0.40795  -0.35234  -0.33004
 Alpha  occ. eigenvalues --   -0.32056  -0.29617
 Alpha virt. eigenvalues --   -0.02419   0.00173   0.01110   0.03542   0.07573
 Alpha virt. eigenvalues --    0.08440   0.09003   0.11019   0.11138   0.12923
 Alpha virt. eigenvalues --    0.13079   0.13746   0.14089   0.15447   0.16823

 Mulliken charges:
               1
     1  C    0.119688
     2  C   -0.214472
     3  C   -0.149845
     4  C   -0.146748
     5  C   -0.150090
     6  C   -0.214072
     7  H    0.169222
     8  H    0.146303
     9  H    0.145988
    10  H    0.146319
    11  H    0.169457
    12  C   -0.026291
    13  C   -0.165190
    14  C   -0.197797
    15  C    0.105556
    16  C   -0.201783
    17  C   -0.188303
    18  H    0.171238
    19  H    0.174026
    20  H    0.173854
    21  H    0.165250
    22  C    0.509471
    23  F   -0.181946
    24  F   -0.181282
    25  F   -0.178555
 Sum of Mulliken charges =  -0.00000

 Dipole moment (field-independent basis, Debye):
    X=             -3.3391    Y=              0.0696    Z=             -0.0220  Tot=              3.3399
 Quadrupole moment (field-independent basis, Debye-Ang):
   XX=            -93.4535   YY=            -82.3442   ZZ=            -95.2535
   XY=              0.2714   XZ=             -0.0901   YZ=              0.2341

  Exact polarizability:     220.265       0.073     139.091      -0.209      -0.578      88.819
 Approx polarizability:     239.569       0.121     202.195      -0.355      -0.101     125.539

 Summary of Natural Population Analysis:

                                       Natural Population
                Natural  -----------------------------------------------
    Atom  No    Charge         Core      Valence    Rydberg      Total
 -----------------------------------------------------------------------
      C    1   -0.05953      1.99909     4.03991    0.02052     6.05953
      C    2   -0.19453      1.99914     4.17695    0.01844     6.19453
      C    3   -0.20293      1.99923     4.18508    0.01862     6.20293
      C    4   -0.20803      1.99922     4.19030    0.01851     6.20803
      C    5   -0.20291      1.99923     4.18506    0.01863     6.20291
      C    6   -0.19461      1.99914     4.17704    0.01843     6.19461
      H    7    0.21499      0.00000     0.78373    0.00128     0.78501
      H    8    0.21559      0.00000     0.78334    0.00107     0.78441
      H    9    0.21539      0.00000     0.78356    0.00105     0.78461
      H   10    0.21561      0.00000     0.78332    0.00107     0.78439
      H   11    0.21499      0.00000     0.78373    0.00128     0.78501
      C   12   -0.15581      1.99897     4.13312    0.02371     6.15581
      C   13   -0.17682      1.99915     4.15966    0.01801     6.17682
      C   14   -0.19356      1.99915     4.17600    0.01840     6.19356
      C   15   -0.02917      1.99910     4.00947    0.02059     6.02917
      C   16   -0.19265      1.99915     4.17508    0.01842     6.19265
      C   17   -0.17456      1.99915     4.15770    0.01771     6.17456
      H   18    0.23260      0.00000     0.76624    0.00117     0.76740
      H   19    0.22003      0.00000     0.77872    0.00125     0.77997
      H   20    0.22034      0.00000     0.77841    0.00125     0.77966
      H   21    0.22933      0.00000     0.76949    0.00118     0.77067
      C   22    0.97552      1.99915     2.97560    0.04974     5.02448
      F   23   -0.32350      1.99992     7.31472    0.00886     9.32350
      F   24   -0.32214      1.99992     7.31318    0.00903     9.32214
      F   25   -0.32364      1.99992     7.31498    0.00874     9.32364
 =======================================================================
   * Total *   -0.00000     31.98864    81.69440    0.31696   114.00000

                      1                      2                      3
                      A                      A                      A
 Frequencies --     13.3335                50.6055                73.3353
 Red. masses --      7.8800                 7.1081                 3.7198
 Frc consts  --      0.0008                 0.0107                 0.0118
 IR Inten    --      0.0255                 0.0524                 0.0288

                      4                      5                      6
                      A                      A                      A
 Frequencies --     90.1488               145.5379               193.2184
 Red. masses --      5.8185                 6.9632                 6.9496
 Frc consts  --      0.0279                 0.0869                 0.1529
 IR Inten    --      0.1950                 0.8050                 0.9030

                      7                      8                      9
                      A                      A                      A
 Frequencies --    227.2425               268.6344               348.7733
 Red. masses --      9.2927                 6.0877                 5.2455
 Frc consts  --      0.2827                 0.2588                 0.3759
 IR Inten    --      0.8842                 0.3265                 1.0188

                     10                     11                     12
                      A                      A                      A
 Frequencies --    404.9374               415.5110               421.4215
 Red. masses --      6.3542                 3.1204                 3.1939
 Frc consts  --      0.6139                 0.3174                 0.3342
 IR Inten    --      1.8846                 0.3666                 0.4130

                     13                     14                     15
                      A                      A                      A
 Frequencies --    435.1466               444.5084               512.3966
 Red. masses --      6.8766                 6.1656                 4.5028
 Frc consts  --      0.7672                 0.7178                 0.6965
 IR Inten    --     11.7757                 0.4826                 5.7402

                     16                     17                     18
                      A                      A                      A
 Frequencies --    552.2066               591.1410               619.4057
 Red. masses --      4.0106                11.1392                 3.5720
 Frc consts  --      0.7206                 2.2934                 0.8075
 IR Inten    --      2.5448                 0.4105                11.0008

                     19                     20                     21
                      A                      A                      A
 Frequencies --    632.2422               652.1824               653.7584
 Red. masses --      5.9037                 6.8631                 7.6325
 Frc consts  --      1.3904                 1.7199                 1.9220
 IR Inten    --      1.4469                 0.0086                 1.2522

                     22                     23                     24
                      A                      A                      A
 Frequencies --    724.2881               747.7848               765.4713
 Red. masses --      1.7452                 8.1012                 2.6817
 Frc consts  --      0.5394                 2.6690                 0.9258
 IR Inten    --     36.2991                15.2628                24.5523

                     25                     26                     27
                      A                      A                      A
 Frequencies --    800.6154               815.0495               874.5188
 Red. masses --      2.2409                 8.1515                 1.2540
 Frc consts  --      0.8463                 3.1905                 0.5651
 IR Inten    --     33.6948                 0.3975                 0.4561

                     28                     29                     30
                      A                      A                      A
 Frequencies --    877.6373               884.4975               957.4159
 Red. masses --      1.2455                 1.6504                 1.4490
 Frc consts  --      0.5652                 0.7607                 0.7825
 IR Inten    --      0.1918                41.3651                 1.3558

                     31                     32                     33
                      A                      A                      A
 Frequencies --   1001.1370              1001.5505              1005.3001
 Red. masses --      1.3711                 1.3820                 1.3829
 Frc consts  --      0.8097                 0.8168                 0.8235
 IR Inten    --      0.3694                 1.0148                 0.3126

                     34                     35                     36
                      A                      A                      A
 Frequencies --   1020.6683              1020.9253              1031.6698
 Red. masses --      5.8714                 1.3010                 5.2853
 Frc consts  --      3.6038                 0.7989                 3.3143
 IR Inten    --      8.0089                 0.0773                17.2070

                     37                     38                     39
                      A                      A                      A
 Frequencies --   1051.9649              1076.2179              1113.0647
 Red. masses --      3.6193                 1.8866                 3.4003
 Frc consts  --      2.3598                 1.2874                 2.4820
 IR Inten    --      3.1689                 5.3628               103.5507

                     40                     41                     42
                      A                      A                      A
 Frequencies --   1116.3125              1143.0498              1179.8780
 Red. masses --      1.5185                 1.3995                 1.1512
 Frc consts  --      1.1149                 1.0773                 0.9442
 IR Inten    --      4.5025                20.9343                 0.0366

                     43                     44                     45
                      A                      A                      A
 Frequencies --   1204.7104              1207.6644              1217.8564
 Red. masses --      7.2092                 1.1801                 1.1465
 Frc consts  --      6.1645                 1.0141                 1.0019
 IR Inten    --    242.9910                15.2440                15.1202

                     46                     47                     48
                      A                      A                      A
 Frequencies --   1230.1387              1299.4395              1321.8622
 Red. masses --      7.6753                 3.4357                 4.5114
 Frc consts  --      6.8431                 3.4181                 4.6445
 IR Inten    --    177.8497                 8.5710                 2.7077

                     49                     50                     51
                      A                      A                      A
 Frequencies --   1325.2589              1343.9159              1359.0425
 Red. masses --      4.0963                 1.3645                 1.5164
 Frc consts  --      4.2388                 1.4520                 1.6502
 IR Inten    --      5.7189                 2.9230                 5.5159

                     52                     53                     54
                      A                      A                      A
 Frequencies --   1370.8503              1449.8112              1496.2928
 Red. masses --      5.6901                 2.8076                 2.4877
 Frc consts  --      6.3001                 3.4771                 3.2816
 IR Inten    --    460.9277                22.9828                 2.4538

                     55                     56                     57
                      A                      A                      A
 Frequencies --   1538.4430              1576.9968              1641.8420
 Red. masses --      2.3261                 3.0414                 6.1661
 Frc consts  --      3.2436                 4.4564                 9.7932
 IR Inten    --      8.4257                 1.1145                 6.3241

                     58                     59                     60
                      A                      A                      A
 Frequencies --   1660.8909              1679.2045              1694.0445
 Red. masses --      6.8779                 6.0086                 6.2250
 Frc consts  --     11.1786                 9.9823                10.5254
 IR Inten    --      0.4291                 3.5607                43.1929

                     61                     62                     63
                      A                      A                      A
 Frequencies --   3200.7400              3204.4959              3210.8389
 Red. masses --      1.0857                 1.0881                 1.0885
 Frc consts  --      6.5530                 6.5830                 6.6117
 IR Inten    --      4.1450                 0.1251                 4.6492

                     64                     65                     66
                      A                      A                      A
 Frequencies --   3213.4948              3215.4168              3220.7953
 Red. masses --      1.0900                 1.0897                 1.0947
 Frc consts  --      6.6319                 6.6377                 6.6905
 IR Inten    --      2.2312                 0.3375                12.3214

                     67                     68                     69
                      A                      A                      A
 Frequencies --   3226.0432              3230.4485              3235.2201
 Red. masses --      1.0952                 1.0986                 1.0943
 Frc consts  --      6.7158                 6.7549                 6.7485
 IR Inten    --      2.0122                 8.9390                 0.5434

 - Thermochemistry -
 -------------------
 Temperature   298.150 Kelvin.  Pressure   1.00000 Atm.
 Atom     1 has atomic number  6 and mass  12.00000

 Molecular mass:   222.06564 amu.
 Principal axes and moments of inertia in atomic units:
                           1         2         3
     Eigenvalues --   940.043158435.274828919.77260
           X            1.00000   0.00014  -0.00010
           Y           -0.00014   1.00000  -0.00026
           Z            0.00009   0.00026   1.00000
 This molecule is an asymmetric top.
 Rotational symmetry number  1.
 Warning -- assumption of classical behavior for rotation
           may cause significant error
 Rotational temperatures (Kelvin)      0.09214     0.01027     0.00971
 Rotational constants (GHZ):           1.91985     0.21395     0.20233
 Zero-point vibrational energy     493641.8 (Joules/Mol)
                                  117.98322 (Kcal/Mol)
 Warning -- explicit consideration of  18 degrees of freedom as
           vibrations may cause significant error
 Vibrational temperatures:     19.18    72.81   105.51   129.70   209.40
          (Kelvin)            278.00   326.95   386.50   501.81   582.61
                              597.83   606.33   626.08   639.55   737.22
                              794.50   850.52   891.19   909.66   938.34
                              940.61  1042.09  1075.90  1101.34  1151.91
                             1172.67  1258.24  1262.72  1272.59  1377.51
                             1440.41  1441.01  1446.40  1468.51  1468.88
                             1484.34  1513.54  1548.44  1601.45  1606.12
                             1644.59  1697.58  1733.31  1737.56  1752.22
                             1769.90  1869.60  1901.86  1906.75  1933.60
                             1955.36  1972.35  2085.95  2152.83  2213.48
                             2268.95  2362.24  2389.65  2416.00  2437.35
                             4605.15  4610.55  4619.68  4623.50  4626.27
                             4634.01  4641.56  4647.89  4654.76

 Zero-point correction=                           0.188018 (Hartree/Particle)
 Thermal correction to Energy=                    0.200427
 Thermal correction to Enthalpy=                  0.201371
 Thermal correction to Gibbs Free Energy=         0.146803
 Sum of electronic and zero-point Energies=           -800.173536
 Sum of electronic and thermal Energies=              -800.161128
 Sum of electronic and thermal Enthalpies=            -800.160184
 Sum of electronic and thermal Free Energies=         -800.214751

                     E (Thermal)             CV                S
                      KCal/Mol        Cal/Mol-Kelvin    Cal/Mol-Kelvin
 Total                  125.770             48.353            114.847
 Electronic               0.000              0.000              0.000
 Translational            0.889              2.981             42.096
 Rotational               0.889              2.981             32.625
 Vibrational            123.992             42.391             40.126
 Vibration     1          0.593              1.987              7.439
 Vibration     2          0.595              1.977              4.794
 Vibration     3          0.599              1.967              4.062
 Vibration     4          0.602              1.956              3.657
 Vibration     5          0.617              1.907              2.730
 Vibration     6          0.635              1.849              2.197
 Vibration     7          0.651              1.799              1.901
 Vibration     8          0.673              1.731              1.605
 Vibration     9          0.726              1.578              1.172
 Vibration    10          0.770              1.459              0.945
 Vibration    11          0.779              1.437              0.907
 Vibration    12          0.784              1.424              0.887
 Vibration    13          0.796              1.394              0.842
 Vibration    14          0.804              1.373              0.813
 Vibration    15          0.867              1.223              0.628
 Vibration    16          0.908              1.135              0.540
 Vibration    17          0.949              1.051              0.465
 Vibration    18          0.979              0.991              0.417

                           ! Non-Optimized Parameters !
 Normal termination of Gaussian 16 at Wed Nov  1 01:28:49 2023.
