 Gaussian 16, Revision C.01,
 Gaussian 16:  ES64L-G16RevC.01  3-Jul-2019

 -----------------------------------------
 # opt freq=noraman m062x def2tzvp pop=nbo
 -----------------------------------------

 ------------
 Structure697
 ------------
 Symbolic Z-matrix:
 Charge =  0 Multiplicity = 1

 SCF Done:  E(RM062X) =  -1359.72462505     A.U. after   24 cycles
 SCF Done:  E(RM062X) =  -1359.87227058     A.U. after   17 cycles
 SCF Done:  E(RM062X) =  -1359.95335498     A.U. after   21 cycles
 SCF Done:  E(RM062X) =  -1360.00170590     A.U. after   15 cycles
 SCF Done:  E(RM062X) =  -1360.05221311     A.U. after   18 cycles
 SCF Done:  E(RM062X) =  -1360.06288098     A.U. after   15 cycles
 SCF Done:  E(RM062X) =  -1360.06774170     A.U. after   19 cycles
 SCF Done:  E(RM062X) =  -1360.06900748     A.U. after   18 cycles
 SCF Done:  E(RM062X) =  -1360.07052072     A.U. after   25 cycles
 SCF Done:  E(RM062X) =  -1360.07127889     A.U. after   14 cycles
 SCF Done:  E(RM062X) =  -1360.07170902     A.U. after   14 cycles
 SCF Done:  E(RM062X) =  -1360.07174367     A.U. after   15 cycles
 SCF Done:  E(RM062X) =  -1360.07175719     A.U. after   17 cycles
 SCF Done:  E(RM062X) =  -1360.07175808     A.U. after    8 cycles
 SCF Done:  E(RM062X) =  -1360.07175823     A.U. after    7 cycles
 SCF Done:  E(RM062X) =  -1360.07175824     A.U. after    7 cycles
 Optimization completed.
    -- Stationary point found.
 Normal termination of Gaussian 16 at Wed Nov  1 01:45:28 2023.

 --------------------------------------------------------------------
 #N Geom=AllCheck Guess=TCheck SCRF=Check GenChk RM062X/def2TZVP Freq
 --------------------------------------------------------------------

 Structure from the checkpoint file:  "ph4sf5_2_1_m062x.chk"
 ------------
 Structure697
 ------------
 Charge =  0 Multiplicity = 1

                         Standard orientation:
 ---------------------------------------------------------------------
 Center     Atomic      Atomic             Coordinates (Angstroms)
 Number     Number       Type             X           Y           Z
 ---------------------------------------------------------------------
      1          6           0        3.108540    0.000001    0.000012
      2          6           0        3.819508    1.130215   -0.402882
      3          6           0        5.205793    1.129665   -0.404815
      4          6           0        5.903412    0.000030   -0.000013
      5          6           0        5.205828   -1.129621    0.404795
      6          6           0        3.819540   -1.130202    0.402883
      7          1           0        5.742525    2.011418   -0.729828
      8          1           0        5.742586   -2.011364    0.729795
      9          1           0        3.281049    2.006566   -0.741875
     10          1           0        3.281108   -2.006569    0.741878
     11          6           0       -1.151783   -0.000045    0.000038
     12          6           0       -0.470203   -1.135770   -0.404322
     13          6           0        0.914424   -1.128860   -0.401536
     14          6           0        1.628140   -0.000021    0.000025
     15          6           0        0.914410    1.128798    0.401581
     16          6           0       -0.470228    1.135686    0.404368
     17          1           0        1.448820   -2.007073   -0.739880
     18          1           0        1.448787    2.007029    0.739911
     19          9           0       -3.012742    1.438745   -0.670499
     20          9           0       -3.012884   -1.438744    0.670515
     21          9           0       -4.530863    0.000063   -0.000092
     22         16           0       -2.952653    0.000001   -0.000005
     23          9           0       -3.012504    0.671417    1.438276
     24          9           0       -3.012360   -0.671395   -1.438281
     25          1           0        6.985469    0.000041   -0.000024
     26          1           0       -1.009972   -2.014708   -0.726347
     27          1           0       -1.010013    2.014623    0.726381
 ---------------------------------------------------------------------

 SCF Done:  E(RM062X) =  -1360.07175824     A.U. after    1 cycles

 The electronic state is 1-A.
 Alpha  occ. eigenvalues --  -90.26235 -25.28114 -25.28113 -25.28111 -25.28110
 Alpha  occ. eigenvalues --  -25.27907 -10.59363 -10.57648 -10.57264 -10.57261
 Alpha  occ. eigenvalues --  -10.56673 -10.56521 -10.56518 -10.55552 -10.55548
 Alpha  occ. eigenvalues --  -10.55426 -10.55393 -10.55302  -8.56917  -6.49332
 Alpha  occ. eigenvalues --   -6.49321  -6.48912  -1.50216  -1.39973  -1.39907
 Alpha  occ. eigenvalues --   -1.36872  -1.35202  -1.00609  -0.97845  -0.93234
 Alpha  occ. eigenvalues --   -0.88712  -0.87548  -0.85781  -0.83535  -0.75360
 Alpha  occ. eigenvalues --   -0.73962  -0.73249  -0.72494  -0.69995  -0.69613
 Alpha  occ. eigenvalues --   -0.67358  -0.64522  -0.62613  -0.62330  -0.62206
 Alpha  occ. eigenvalues --   -0.58474  -0.58114  -0.55725  -0.55716  -0.55309
 Alpha  occ. eigenvalues --   -0.55169  -0.54927  -0.54697  -0.52709  -0.52673
 Alpha  occ. eigenvalues --   -0.52094  -0.52029  -0.50831  -0.50701  -0.50080
 Alpha  occ. eigenvalues --   -0.48873  -0.47147  -0.45133  -0.44131  -0.43546
 Alpha  occ. eigenvalues --   -0.41290  -0.41195  -0.35732  -0.33568  -0.32340
 Alpha  occ. eigenvalues --   -0.30056
 Alpha virt. eigenvalues --   -0.02958  -0.00175   0.00793   0.03081   0.03491
 Alpha virt. eigenvalues --    0.07466   0.08715   0.08836   0.10886   0.11242
 Alpha virt. eigenvalues --    0.12877   0.13042   0.13555   0.13720   0.15292

 Mulliken charges:
               1
     1  C    0.119114
     2  C   -0.213743
     3  C   -0.149717
     4  C   -0.145976
     5  C   -0.149718
     6  C   -0.213742
     7  H    0.147293
     8  H    0.147293
     9  H    0.170268
    10  H    0.170268
    11  C   -0.028152
    12  C   -0.137539
    13  C   -0.215210
    14  C    0.109524
    15  C   -0.215219
    16  C   -0.137534
    17  H    0.175902
    18  H    0.175902
    19  F   -0.207920
    20  F   -0.207925
    21  F   -0.214185
    22  S    0.923104
    23  F   -0.207741
    24  F   -0.207730
    25  H    0.146987
    26  H    0.183198
    27  H    0.183200
 Sum of Mulliken charges =  -0.00000

 Dipole moment (field-independent basis, Debye):
    X=              4.3046    Y=             -0.0001    Z=             -0.0001  Tot=              4.3046
 Quadrupole moment (field-independent basis, Debye-Ang):
   XX=           -107.4174   YY=            -99.7414   ZZ=           -113.0949
   XY=              0.0001   XZ=              0.0002   YZ=              0.3740

  Exact polarizability:     240.002       0.000     146.536      -0.001      -0.813      97.106
 Approx polarizability:     253.759      -0.000     214.776      -0.001       0.043     137.851

 Summary of Natural Population Analysis:

                                       Natural Population
                Natural  -----------------------------------------------
    Atom  No    Charge         Core      Valence    Rydberg      Total
 -----------------------------------------------------------------------
      C    1   -0.06164      1.99909     4.04197    0.02057     6.06164
      C    2   -0.19376      1.99914     4.17626    0.01836     6.19376
      C    3   -0.20237      1.99923     4.18455    0.01859     6.20237
      C    4   -0.20637      1.99922     4.18871    0.01844     6.20637
      C    5   -0.20237      1.99923     4.18455    0.01859     6.20237
      C    6   -0.19376      1.99914     4.17626    0.01836     6.19376
      H    7    0.21627      0.00000     0.78267    0.00106     0.78373
      H    8    0.21627      0.00000     0.78267    0.00106     0.78373
      H    9    0.21527      0.00000     0.78346    0.00128     0.78473
      H   10    0.21526      0.00000     0.78346    0.00128     0.78474
      C   11   -0.27830      1.99873     4.24977    0.02979     6.27830
      C   12   -0.18363      1.99909     4.16538    0.01915     6.18363
      C   13   -0.19146      1.99915     4.17350    0.01881     6.19146
      C   14   -0.02521      1.99910     4.00548    0.02063     6.02521
      C   15   -0.19146      1.99915     4.17350    0.01881     6.19146
      C   16   -0.18363      1.99909     4.16538    0.01915     6.18363
      H   17    0.22304      0.00000     0.77568    0.00128     0.77696
      H   18    0.22304      0.00000     0.77568    0.00128     0.77696
      F   19   -0.47576      1.99995     7.46487    0.01094     9.47576
      F   20   -0.47576      1.99995     7.46487    0.01094     9.47576
      F   21   -0.45637      1.99995     7.44565    0.01077     9.45637
      S   22    2.47070      9.99857     3.28030    0.25043    13.52930
      F   23   -0.47567      1.99995     7.46477    0.01095     9.47567
      F   24   -0.47567      1.99995     7.46476    0.01095     9.47567
      H   25    0.21601      0.00000     0.78295    0.00104     0.78399
      H   26    0.23866      0.00000     0.76018    0.00116     0.76134
      H   27    0.23866      0.00000     0.76017    0.00116     0.76134
 =======================================================================
   * Total *   -0.00000     43.98770    97.45744    0.55486   142.00000

                      1                      2                      3
                      A                      A                      A
 Frequencies --     42.5156                43.5982                82.3227
 Red. masses --      5.5730                 7.2468                 6.1631
 Frc consts  --      0.0059                 0.0081                 0.0246
 IR Inten    --      0.0056                 0.0561                 0.1709

                      4                      5                      6
                      A                      A                      A
 Frequencies --     84.7371               131.0364               167.4698
 Red. masses --      3.8976                 7.3034                 7.7923
 Frc consts  --      0.0165                 0.0739                 0.1288
 IR Inten    --      0.0352                 0.5338                 0.3425

                      7                      8                      9
                      A                      A                      A
 Frequencies --    197.0248               246.3839               303.7487
 Red. masses --      9.6013                 6.5569                 7.3075
 Frc consts  --      0.2196                 0.2345                 0.3972
 IR Inten    --      0.7796                 0.5314                 0.5944

                     10                     11                     12
                      A                      A                      A
 Frequencies --    349.3941               353.7103               389.7709
 Red. masses --      6.8019                18.7364                 6.1660
 Frc consts  --      0.4892                 1.3811                 0.5519
 IR Inten    --      0.6403                 0.0005                 0.4951

                     13                     14                     15
                      A                      A                      A
 Frequencies --    413.0207               414.8680               424.1379
 Red. masses --      5.5040                 2.9262                 3.3655
 Frc consts  --      0.5532                 0.2967                 0.3567
 IR Inten    --      9.8814                 0.3650                 3.4191

                     16                     17                     18
                      A                      A                      A
 Frequencies --    446.9205               468.9386               486.4348
 Red. masses --     10.1628                 6.3265                18.9090
 Frc consts  --      1.1960                 0.8197                 2.6361
 IR Inten    --      0.2187                 0.0538                 0.1077

                     19                     20                     21
                      A                      A                      A
 Frequencies --    530.0317               571.7906               586.7349
 Red. masses --      3.7583                 5.5593                17.3523
 Frc consts  --      0.6221                 1.0709                 3.5196
 IR Inten    --      7.8269                 2.0988                 9.5994

                     22                     23                     24
                      A                      A                      A
 Frequencies --    603.1842               616.3141               624.5090
 Red. masses --      3.9762                16.7475                18.7444
 Frc consts  --      0.8524                 3.7480                 4.3072
 IR Inten    --     24.1151                87.5754                 0.0116

                     25                     26                     27
                      A                      A                      A
 Frequencies --    631.1270               649.3364               656.7477
 Red. masses --      6.3800                 6.8290                 8.0608
 Frc consts  --      1.4973                 1.6965                 2.0485
 IR Inten    --      0.5422                 0.0020                 0.0011

                     28                     29                     30
                      A                      A                      A
 Frequencies --    703.5122               724.1759               759.1933
 Red. masses --     15.2450                 1.7556                 2.9558
 Frc consts  --      4.4455                 0.5424                 1.0037
 IR Inten    --     31.8267                35.3733                15.2257

                     31                     32                     33
                      A                      A                      A
 Frequencies --    776.1855               797.0560               869.6540
 Red. masses --      6.5463                 2.0253                 1.2459
 Frc consts  --      2.3237                 0.7581                 0.5552
 IR Inten    --     28.0881                41.8468                 1.2422

                     34                     35                     36
                      A                      A                      A
 Frequencies --    877.5961               881.0771               892.5202
 Red. masses --      1.2543                 1.6211                14.4206
 Frc consts  --      0.5691                 0.7415                 6.7682
 IR Inten    --      2.4463                18.4345               568.3484

                     37                     38                     39
                      A                      A                      A
 Frequencies --    907.5293               912.5358               958.0582
 Red. masses --     23.8626                23.3685                 1.4470
 Frc consts  --     11.5795                11.4652                 0.7825
 IR Inten    --    385.8319               325.8370                 0.2740

                     40                     41                     42
                      A                      A                      A
 Frequencies --   1001.8128              1004.7068              1008.7201
 Red. masses --      1.3743                 1.3757                 1.3873
 Frc consts  --      0.8127                 0.8182                 0.8317
 IR Inten    --      0.7045                 0.6611                 0.0005

                     43                     44                     45
                      A                      A                      A
 Frequencies --   1020.8446              1022.0569              1031.1846
 Red. masses --      5.7400                 1.3022                 5.2351
 Frc consts  --      3.5244                 0.8015                 3.2798
 IR Inten    --      0.2086                 0.0325                 0.1856

                     46                     47                     48
                      A                      A                      A
 Frequencies --   1053.3539              1076.9631              1116.7150
 Red. masses --      3.4426                 1.8656                 1.5181
 Frc consts  --      2.2505                 1.2749                 1.1154
 IR Inten    --      6.7769                 0.3131                 4.1617

                     49                     50                     51
                      A                      A                      A
 Frequencies --   1149.0968              1153.2430              1180.3426
 Red. masses --      2.9843                 1.3390                 1.1515
 Frc consts  --      2.3217                 1.0493                 0.9452
 IR Inten    --     71.2973                 0.3027                 0.0037

                     52                     53                     54
                      A                      A                      A
 Frequencies --   1208.6768              1223.2822              1296.9946
 Red. masses --      1.1182                 1.1344                 3.8167
 Frc consts  --      0.9625                 1.0002                 3.7829
 IR Inten    --      0.1423                 0.2172                 0.1262

                     55                     56                     57
                      A                      A                      A
 Frequencies --   1319.5214              1324.8234              1343.7262
 Red. masses --      6.9261                 3.2265                 1.3316
 Frc consts  --      7.1051                 3.3365                 1.4166
 IR Inten    --      0.6828                 2.1503                 0.1186

                     58                     59                     60
                      A                      A                      A
 Frequencies --   1358.8792              1445.3696              1496.1299
 Red. masses --      1.4787                 2.7527                 2.4647
 Frc consts  --      1.6088                 3.3882                 3.2505
 IR Inten    --      1.6267                15.8301                 3.0527

                     61                     62                     63
                      A                      A                      A
 Frequencies --   1533.3449              1562.8532              1641.7730
 Red. masses --      2.2059                 2.7543                 6.1954
 Frc consts  --      3.0557                 3.9636                 9.8388
 IR Inten    --     29.8952                 1.8518                 4.1933

                     64                     65                     66
                      A                      A                      A
 Frequencies --   1660.9993              1676.7202              1679.6775
 Red. masses --      6.8707                 6.1483                 6.0203
 Frc consts  --     11.1683                10.1842                10.0074
 IR Inten    --      0.2097                21.1242                 0.0447

                     67                     68                     69
                      A                      A                      A
 Frequencies --   3201.2583              3204.9396              3213.2775
 Red. masses --      1.0857                 1.0881                 1.0910
 Frc consts  --      6.5557                 6.5852                 6.6368
 IR Inten    --      3.9305                 0.0977                 5.1334

                     70                     71                     72
                      A                      A                      A
 Frequencies --   3217.4758              3217.8950              3221.4791
 Red. masses --      1.0899                 1.0899                 1.0944
 Frc consts  --      6.6475                 6.6493                 6.6915
 IR Inten    --      0.8557                 0.0848                12.6801

                     73                     74                     75
                      A                      A                      A
 Frequencies --   3230.8765              3244.0727              3244.3004
 Red. masses --      1.0987                 1.0935                 1.0945
 Frc consts  --      6.7569                 6.7800                 6.7872
 IR Inten    --      8.7496                 0.0171                 0.4902

 - Thermochemistry -
 -------------------
 Temperature   298.150 Kelvin.  Pressure   1.00000 Atm.
 Atom     1 has atomic number  6 and mass  12.00000

 Molecular mass:   280.03451 amu.
 Principal axes and moments of inertia in atomic units:
                           1         2         3
     Eigenvalues --  1309.97869********************
           X            1.00000   0.00000  -0.00000
           Y           -0.00000   1.00000  -0.00013
           Z            0.00000   0.00013   1.00000
 This molecule is an asymmetric top.
 Rotational symmetry number  1.
 Warning -- assumption of classical behavior for rotation
           may cause significant error
 Rotational temperatures (Kelvin)      0.06612     0.00753     0.00723
 Rotational constants (GHZ):           1.37769     0.15699     0.15065
 Zero-point vibrational energy     503402.3 (Joules/Mol)
                                  120.31603 (Kcal/Mol)
 Warning -- explicit consideration of  23 degrees of freedom as
           vibrations may cause significant error
 Vibrational temperatures:     61.17    62.73   118.44   121.92   188.53
          (Kelvin)            240.95   283.47   354.49   437.03   502.70
                              508.91   560.79   594.24   596.90   610.24
                              643.02   674.70   699.87   762.60   822.68
                              844.18   867.85   886.74   898.53   908.05
                              934.25   944.91  1012.20  1041.93  1092.31
                             1116.76  1146.79  1251.24  1262.67  1267.67
                             1284.14  1305.73  1312.94  1378.43  1441.39
                             1445.55  1451.32  1468.77  1470.51  1483.64
                             1515.54  1549.51  1606.70  1653.29  1659.26
                             1698.25  1739.02  1760.03  1866.09  1898.50
                             1906.13  1933.32  1955.12  2079.56  2152.60
                             2206.14  2248.60  2362.15  2389.81  2412.43
                             2416.68  4605.90  4611.19  4623.19  4629.23
                             4629.83  4634.99  4648.51  4667.50  4667.82

 Zero-point correction=                           0.191736 (Hartree/Particle)
 Thermal correction to Energy=                    0.205951
 Thermal correction to Enthalpy=                  0.206896
 Thermal correction to Gibbs Free Energy=         0.149636
 Sum of electronic and zero-point Energies=          -1359.880022
 Sum of electronic and thermal Energies=             -1359.865807
 Sum of electronic and thermal Enthalpies=           -1359.864863
 Sum of electronic and thermal Free Energies=        -1359.922122

                     E (Thermal)             CV                S
                      KCal/Mol        Cal/Mol-Kelvin    Cal/Mol-Kelvin
 Total                  129.236             57.435            120.512
 Electronic               0.000              0.000              0.000
 Translational            0.889              2.981             42.787
 Rotational               0.889              2.981             33.556
 Vibrational            127.459             51.474             44.169
 Vibration     1          0.595              1.980              5.138
 Vibration     2          0.595              1.980              5.088
 Vibration     3          0.600              1.961              3.835
 Vibration     4          0.601              1.960              3.778
 Vibration     5          0.612              1.922              2.931
 Vibration     6          0.624              1.882              2.464
 Vibration     7          0.636              1.844              2.161
 Vibration     8          0.661              1.769              1.756
 Vibration     9          0.695              1.667              1.396
 Vibration    10          0.727              1.576              1.169
 Vibration    11          0.730              1.568              1.150
 Vibration    12          0.758              1.492              1.001
 Vibration    13          0.777              1.442              0.916
 Vibration    14          0.778              1.438              0.910
 Vibration    15          0.786              1.418              0.878
 Vibration    16          0.806              1.368              0.805
 Vibration    17          0.826              1.319              0.741
 Vibration    18          0.842              1.280              0.693
 Vibration    19          0.885              1.184              0.587
 Vibration    20          0.928              1.092              0.501
 Vibration    21          0.944              1.060              0.473
 Vibration    22          0.962              1.025              0.444
 Vibration    23          0.976              0.997              0.422

 Optimization completed.
    -- Stationary point found.
 Normal termination of Gaussian 16 at Wed Nov  1 03:01:40 2023.
