 Gaussian 16, Revision C.01,
 Gaussian 16:  ES64L-G16RevC.01  3-Jul-2019

 -----------------------------------------
 # opt freq=noraman m062x def2tzvp pop=nbo
 -----------------------------------------

 ------------
 Structure697
 ------------
 Symbolic Z-matrix:
 Charge =  0 Multiplicity = 1

 SCF Done:  E(RM062X) =  -620.498785226     A.U. after   14 cycles
 SCF Done:  E(RM062X) =  -620.501013253     A.U. after   13 cycles
 SCF Done:  E(RM062X) =  -620.501158693     A.U. after   11 cycles
 SCF Done:  E(RM062X) =  -620.501192479     A.U. after   12 cycles
 SCF Done:  E(RM062X) =  -620.501194502     A.U. after    8 cycles
 SCF Done:  E(RM062X) =  -620.501195798     A.U. after    8 cycles
 SCF Done:  E(RM062X) =  -620.501195903     A.U. after    6 cycles
 Optimization completed.
    -- Stationary point found.
 Normal termination of Gaussian 16 at Wed Nov  1 01:05:39 2023.

 --------------------------------------------------------------------
 #N Geom=AllCheck Guess=TCheck SCRF=Check GenChk RM062X/def2TZVP Freq
 --------------------------------------------------------------------

 Structure from the checkpoint file:  "ph4tbu_idp_1_1_m062x.chk"
 ------------
 Structure697
 ------------
 Charge =  0 Multiplicity = 1

                         Standard orientation:
 ---------------------------------------------------------------------
 Center     Atomic      Atomic             Coordinates (Angstroms)
 Number     Number       Type             X           Y           Z
 ---------------------------------------------------------------------
      1          6           0       -2.316369    0.004962   -0.001936
      2          6           0       -3.024214   -1.133485   -0.388851
      3          6           0       -4.410700   -1.143245   -0.386273
      4          6           0       -5.116460   -0.013515    0.004030
      5          6           0       -4.423959    1.125395    0.391508
      6          6           0       -3.037489    1.133821    0.388461
      7          1           0       -2.480625   -2.010564   -0.717644
      8          1           0       -4.941764   -2.033605   -0.697670
      9          1           0       -6.198569   -0.020643    0.006421
     10          1           0       -4.965375    2.008600    0.705437
     11          1           0       -2.503847    2.017659    0.715388
     12          6           0        1.998330    0.033140   -0.012467
     13          6           0        1.276352   -1.094556    0.386229
     14          6           0       -0.106403   -1.107551    0.389886
     15          6           0       -0.835994    0.014761   -0.005698
     16          6           0       -0.123061    1.140812   -0.403249
     17          6           0        1.265904    1.148814   -0.407091
     18          1           0        1.804106   -1.983511    0.709986
     19          1           0       -0.631483   -1.992531    0.728115
     20          1           0       -0.659529    2.019671   -0.739697
     21          1           0        1.772688    2.046250   -0.733579
     22          6           0        3.524985   -0.000040    0.000613
     23          6           0        4.134891    1.319938   -0.470296
     24          1           0        5.223251    1.246944   -0.442926
     25          1           0        3.841593    1.554607   -1.495151
     26          1           0        3.839496    2.150541    0.173305
     27          6           0        4.015050   -0.275126    1.429235
     28          1           0        5.106684   -0.301045    1.452391
     29          1           0        3.674429    0.506360    2.110625
     30          1           0        3.647716   -1.231725    1.802059
     31          6           0        4.017829   -1.118138   -0.928568
     32          1           0        5.109491   -1.151653   -0.928480
     33          1           0        3.651176   -2.094460   -0.610245
     34          1           0        3.678406   -0.946813   -1.951545
 ---------------------------------------------------------------------

 SCF Done:  E(RM062X) =  -620.501195903     A.U. after    1 cycles

 The electronic state is 1-A.
 Alpha  occ. eigenvalues --  -10.55306 -10.55028 -10.54720 -10.54523 -10.54083
 Alpha  occ. eigenvalues --  -10.54066 -10.53962 -10.53953 -10.53912 -10.53909
 Alpha  occ. eigenvalues --  -10.53847 -10.53723 -10.53659 -10.52364 -10.52342
 Alpha  occ. eigenvalues --  -10.52341  -0.97901  -0.95959  -0.92249  -0.86738
 Alpha  occ. eigenvalues --   -0.84774  -0.83975  -0.81013  -0.78045  -0.77880
 Alpha  occ. eigenvalues --   -0.71315  -0.70190  -0.67266  -0.66530  -0.62848
 Alpha  occ. eigenvalues --   -0.60549  -0.56540  -0.53988  -0.53756  -0.51472
 Alpha  occ. eigenvalues --   -0.51205  -0.51012  -0.50599  -0.49174  -0.48881
 Alpha  occ. eigenvalues --   -0.48219  -0.46472  -0.45290  -0.44817  -0.44037
 Alpha  occ. eigenvalues --   -0.43018  -0.42555  -0.41585  -0.40365  -0.39793
 Alpha  occ. eigenvalues --   -0.39141  -0.37851  -0.37321  -0.32836  -0.30922
 Alpha  occ. eigenvalues --   -0.30754  -0.27353
 Alpha virt. eigenvalues --   -0.00239   0.01894   0.02424   0.05565   0.06233
 Alpha virt. eigenvalues --    0.08464   0.09411   0.09637   0.10886   0.11119
 Alpha virt. eigenvalues --    0.11759   0.11947   0.12808   0.13328   0.13679

 Mulliken charges:
               1
     1  C    0.116879
     2  C   -0.215236
     3  C   -0.150880
     4  C   -0.150035
     5  C   -0.151094
     6  C   -0.214853
     7  H    0.165042
     8  H    0.142254
     9  H    0.141854
    10  H    0.142257
    11  H    0.164770
    12  C    0.142693
    13  C   -0.230368
    14  C   -0.228393
    15  C    0.097998
    16  C   -0.219815
    17  C   -0.163014
    18  H    0.161200
    19  H    0.164994
    20  H    0.163149
    21  H    0.164290
    22  C   -0.088365
    23  C   -0.513664
    24  H    0.154501
    25  H    0.165152
    26  H    0.164811
    27  C   -0.408791
    28  H    0.146843
    29  H    0.155733
    30  H    0.143097
    31  C   -0.408708
    32  H    0.146842
    33  H    0.142911
    34  H    0.155947
 Sum of Mulliken charges =  -0.00000

 Dipole moment (field-independent basis, Debye):
    X=              0.4957    Y=             -0.0150    Z=              0.0073  Tot=              0.4960
 Quadrupole moment (field-independent basis, Debye-Ang):
   XX=            -88.0234   YY=            -90.8438   ZZ=           -102.2090
   XY=              0.0106   XZ=             -0.0274   YZ=              0.1950

  Exact polarizability:     273.895      -0.275     169.051       0.008       1.277     121.196
 Approx polarizability:     286.853      -0.501     243.515       0.017      -0.069     166.515

 Summary of Natural Population Analysis:

                                       Natural Population
                Natural  -----------------------------------------------
    Atom  No    Charge         Core      Valence    Rydberg      Total
 -----------------------------------------------------------------------
      C    1   -0.04733      1.99910     4.02802    0.02021     6.04733
      C    2   -0.19808      1.99914     4.18092    0.01801     6.19808
      C    3   -0.20446      1.99923     4.18678    0.01845     6.20446
      C    4   -0.21501      1.99922     4.19731    0.01848     6.21501
      C    5   -0.20449      1.99923     4.18678    0.01848     6.20449
      C    6   -0.19790      1.99914     4.18063    0.01813     6.19790
      H    7    0.21361      0.00000     0.78518    0.00121     0.78639
      H    8    0.21295      0.00000     0.78601    0.00104     0.78705
      H    9    0.21307      0.00000     0.78592    0.00101     0.78693
      H   10    0.21296      0.00000     0.78600    0.00104     0.78704
      H   11    0.21374      0.00000     0.78502    0.00124     0.78626
      C   12   -0.00389      1.99908     3.98138    0.02343     6.00389
      C   13   -0.20678      1.99912     4.19104    0.01661     6.20678
      C   14   -0.18782      1.99914     4.17126    0.01743     6.18782
      C   15   -0.05890      1.99909     4.04028    0.01953     6.05890
      C   16   -0.18627      1.99915     4.16905    0.01807     6.18627
      C   17   -0.21446      1.99913     4.19742    0.01791     6.21446
      H   18    0.20592      0.00000     0.79235    0.00173     0.79408
      H   19    0.21129      0.00000     0.78725    0.00146     0.78871
      H   20    0.21286      0.00000     0.78594    0.00120     0.78714
      H   21    0.21405      0.00000     0.78474    0.00121     0.78595
      C   22   -0.07489      1.99941     4.06086    0.01461     6.07489
      C   23   -0.59780      1.99944     4.58583    0.01253     6.59780
      H   24    0.20930      0.00000     0.78974    0.00096     0.79070
      H   25    0.20762      0.00000     0.79134    0.00103     0.79238
      H   26    0.20753      0.00000     0.79144    0.00104     0.79247
      C   27   -0.58717      1.99943     4.57589    0.01186     6.58717
      H   28    0.20384      0.00000     0.79511    0.00105     0.79616
      H   29    0.21034      0.00000     0.78875    0.00091     0.78966
      H   30    0.20466      0.00000     0.79446    0.00088     0.79534
      C   31   -0.58730      1.99943     4.57600    0.01187     6.58730
      H   32    0.20386      0.00000     0.79509    0.00105     0.79614
      H   33    0.20457      0.00000     0.79455    0.00088     0.79543
      H   34    0.21037      0.00000     0.78872    0.00091     0.78963
 =======================================================================
   * Total *   -0.00000     31.98748    81.71705    0.29547   114.00000

                      1                      2                      3
                      A                      A                      A
 Frequencies --     42.8546                50.3531                82.6417
 Red. masses --      3.2117                 3.9847                 3.6110
 Frc consts  --      0.0035                 0.0060                 0.0145
 IR Inten    --      0.0723                 0.2689                 0.0110

                      4                      5                      6
                      A                      A                      A
 Frequencies --     92.1902               143.4977               215.2917
 Red. masses --      4.2552                 3.5782                 2.9987
 Frc consts  --      0.0213                 0.0434                 0.0819
 IR Inten    --      0.2115                 0.0543                 0.0868

                      7                      8                      9
                      A                      A                      A
 Frequencies --    230.5869               237.5586               279.1769
 Red. masses --      1.6282                 2.2035                 2.1269
 Frc consts  --      0.0510                 0.0733                 0.0977
 IR Inten    --      0.1120                 0.0207                 0.0415

                     10                     11                     12
                      A                      A                      A
 Frequencies --    289.7402               327.8694               349.1756
 Red. masses --      1.2141                 2.6756                 1.0625
 Frc consts  --      0.0601                 0.1695                 0.0763
 IR Inten    --      0.0741                 0.0946                 0.0326

                     13                     14                     15
                      A                      A                      A
 Frequencies --    358.5646               387.1907               407.7424
 Red. masses --      2.7665                 2.6057                 3.2293
 Frc consts  --      0.2096                 0.2302                 0.3163
 IR Inten    --      0.0275                 0.3787                 0.7869

                     16                     17                     18
                      A                      A                      A
 Frequencies --    417.3299               426.0983               451.4375
 Red. masses --      2.9219                 2.9738                 3.3898
 Frc consts  --      0.2998                 0.3181                 0.4070
 IR Inten    --      0.5017                 0.0039                 0.2143

                     19                     20                     21
                      A                      A                      A
 Frequencies --    477.8716               533.7386               563.3537
 Red. masses --      3.2646                 3.3044                 3.4020
 Frc consts  --      0.4392                 0.5546                 0.6361
 IR Inten    --      0.5149                12.5335                 1.1521

                     22                     23                     24
                      A                      A                      A
 Frequencies --    592.0659               632.4362               657.0769
 Red. masses --      2.3272                 6.2617                 6.8698
 Frc consts  --      0.4806                 1.4756                 1.7475
 IR Inten    --     11.4065                 0.2389                 0.1711

                     25                     26                     27
                      A                      A                      A
 Frequencies --    684.8190               723.9122               766.3414
 Red. masses --      5.0833                 1.7378                 2.6226
 Frc consts  --      1.4046                 0.5366                 0.9075
 IR Inten    --      4.0425                37.0579                23.5319

                     28                     29                     30
                      A                      A                      A
 Frequencies --    783.5656               799.3477               868.0562
 Red. masses --      5.2706                 2.2085                 2.2119
 Frc consts  --      1.9066                 0.8314                 0.9820
 IR Inten    --      0.0243                29.8373                 1.4807

                     31                     32                     33
                      A                      A                      A
 Frequencies --    870.7281               876.7187               877.1080
 Red. masses --      1.3181                 1.4873                 1.3807
 Frc consts  --      0.5888                 0.6735                 0.6258
 IR Inten    --      1.7649                15.7582                 8.4181

                     34                     35                     36
                      A                      A                      A
 Frequencies --    948.2675               953.9360               959.2593
 Red. masses --      1.6662                 1.4521                 1.5887
 Frc consts  --      0.8828                 0.7786                 0.8613
 IR Inten    --      1.0405                 1.0281                 0.9600

                     37                     38                     39
                      A                      A                      A
 Frequencies --    964.4986               990.9915               998.3179
 Red. masses --      1.2037                 1.3706                 1.3590
 Frc consts  --      0.6597                 0.7931                 0.7980
 IR Inten    --      0.1340                 0.2399                 0.4726

                     40                     41                     42
                      A                      A                      A
 Frequencies --    999.7389              1015.8377              1020.4677
 Red. masses --      1.3720                 1.2924                 5.8601
 Frc consts  --      0.8079                 0.7857                 3.5955
 IR Inten    --      0.0198                 0.0750                 3.8411

                     43                     44                     45
                      A                      A                      A
 Frequencies --   1029.5298              1047.5893              1055.4765
 Red. masses --      4.7810                 1.4607                 1.4304
 Frc consts  --      2.9857                 0.9445                 0.9389
 IR Inten    --      7.3034                 2.0438                 0.0082

                     46                     47                     48
                      A                      A                      A
 Frequencies --   1056.1016              1077.8425              1114.7403
 Red. masses --      2.9084                 1.8966                 1.5187
 Frc consts  --      1.9112                 1.2982                 1.1119
 IR Inten    --      0.0283                 3.4878                 4.1472

                     49                     50                     51
                      A                      A                      A
 Frequencies --   1147.2471              1154.9933              1178.4610
 Red. masses --      2.0494                 1.4582                 1.1486
 Frc consts  --      1.5892                 1.1461                 0.9398
 IR Inten    --     12.7240                 4.1345                 0.0583

                     52                     53                     54
                      A                      A                      A
 Frequencies --   1207.7280              1226.4959              1241.2560
 Red. masses --      1.1199                 1.1202                 2.8668
 Frc consts  --      0.9624                 0.9929                 2.6024
 IR Inten    --      0.6679                 0.2203                 0.2551

                     55                     56                     57
                      A                      A                      A
 Frequencies --   1245.7195              1296.2821              1311.8189
 Red. masses --      2.9176                 3.6334                 3.1414
 Frc consts  --      2.6675                 3.5971                 3.1851
 IR Inten    --      2.1573                 2.1773                21.0443

                     58                     59                     60
                      A                      A                      A
 Frequencies --   1315.4624              1327.6313              1344.9955
 Red. masses --      4.8435                 3.4738                 1.3845
 Frc consts  --      4.9382                 3.6076                 1.4757
 IR Inten    --      2.1945                 0.0960                 0.5458

                     61                     62                     63
                      A                      A                      A
 Frequencies --   1357.3066              1397.5353              1397.9218
 Red. masses --      1.4540                 1.2452                 1.2780
 Frc consts  --      1.5782                 1.4329                 1.4715
 IR Inten    --      0.3954                 9.5075                 9.5720

                     64                     65                     66
                      A                      A                      A
 Frequencies --   1430.3746              1447.7445              1482.2539
 Red. masses --      1.2302                 2.6418                 1.0476
 Frc consts  --      1.4829                 3.2624                 1.3561
 IR Inten    --      5.0713                10.5312                 0.0016

                     67                     68                     69
                      A                      A                      A
 Frequencies --   1485.9623              1490.3750              1494.1294
 Red. masses --      1.0441                 1.1449                 2.0089
 Frc consts  --      1.3584                 1.4984                 2.6423
 IR Inten    --      0.0367                 1.5004                 1.6796

                     70                     71                     72
                      A                      A                      A
 Frequencies --   1505.3963              1508.9342              1522.8242
 Red. masses --      1.0842                 1.0533                 1.0767
 Frc consts  --      1.4476                 1.4129                 1.4711
 IR Inten    --     10.1726                 7.7469                 5.7286

                     73                     74                     75
                      A                      A                      A
 Frequencies --   1537.0366              1572.5712              1629.3089
 Red. masses --      2.2118                 2.8063                 6.0842
 Frc consts  --      3.0787                 4.0888                 9.5161
 IR Inten    --     45.9330                10.4466                 1.3677

                     76                     77                     78
                      A                      A                      A
 Frequencies --   1656.2347              1678.9909              1688.2330
 Red. masses --      6.3994                 6.0245                 6.2436
 Frc consts  --     10.3426                10.0062                10.4845
 IR Inten    --      1.3535                10.8313                 1.1244

                     79                     80                     81
                      A                      A                      A
 Frequencies --   3055.2873              3055.6705              3060.9868
 Red. masses --      1.0346                 1.0348                 1.0359
 Frc consts  --      5.6904                 5.6926                 5.7187
 IR Inten    --     21.1356                22.3956                25.1956

                     82                     83                     84
                      A                      A                      A
 Frequencies --   3126.7496              3127.5730              3131.7331
 Red. masses --      1.1024                 1.1024                 1.1027
 Frc consts  --      6.3500                 6.3535                 6.3722
 IR Inten    --      2.7821                 5.6023                17.0165

                     85                     86                     87
                      A                      A                      A
 Frequencies --   3133.9304              3137.9409              3139.8720
 Red. masses --      1.1014                 1.1021                 1.1016
 Frc consts  --      6.3733                 6.3939                 6.3988
 IR Inten    --     75.0904                11.1681                30.0670

                     88                     89                     90
                      A                      A                      A
 Frequencies --   3195.7340              3198.1108              3201.4760
 Red. masses --      1.0866                 1.0855                 1.0883
 Frc consts  --      6.5380                 6.5414                 6.5721
 IR Inten    --     14.3270                 1.8451                 3.7101

                     91                     92                     93
                      A                      A                      A
 Frequencies --   3204.8190              3211.5301              3213.9967
 Red. masses --      1.0881                 1.0923                 1.0929
 Frc consts  --      6.5846                 6.6379                 6.6517
 IR Inten    --      1.6747                 4.1333                 4.8728

                     94                     95                     96
                      A                      A                      A
 Frequencies --   3218.0297              3228.1751              3231.7020
 Red. masses --      1.0947                 1.0985                 1.0919
 Frc consts  --      6.6792                 6.7446                 6.7191
 IR Inten    --     18.0695                12.0922                 4.9458

 - Thermochemistry -
 -------------------
 Temperature   298.150 Kelvin.  Pressure   1.00000 Atm.
 Atom     1 has atomic number  6 and mass  12.00000

 Molecular mass:   210.14085 amu.
 Principal axes and moments of inertia in atomic units:
                           1         2         3
     Eigenvalues --  1010.490188028.802038511.20187
           X            1.00000  -0.00017   0.00005
           Y            0.00017   1.00000  -0.00022
           Z           -0.00005   0.00022   1.00000
 This molecule is an asymmetric top.
 Rotational symmetry number  1.
 Warning -- assumption of classical behavior for rotation
           may cause significant error
 Rotational temperatures (Kelvin)      0.08571     0.01079     0.01018
 Rotational constants (GHZ):           1.78601     0.22478     0.21204
 Zero-point vibrational energy     776876.3 (Joules/Mol)
                                  185.67789 (Kcal/Mol)
 Warning -- explicit consideration of  22 degrees of freedom as
           vibrations may cause significant error
 Vibrational temperatures:     61.66    72.45   118.90   132.64   206.46
          (Kelvin)            309.76   331.76   341.79   401.67   416.87
                              471.73   502.39   515.89   557.08   586.65
                              600.44   613.06   649.52   687.55   767.93
                              810.54   851.85   909.93   945.39   985.30
                             1041.55  1102.59  1127.38  1150.08  1248.94
                             1252.78  1261.40  1261.96  1364.35  1372.50
                             1380.16  1387.70  1425.82  1436.36  1438.40
                             1461.56  1468.23  1481.26  1507.25  1518.60
                             1519.49  1550.77  1603.86  1650.63  1661.78
                             1695.54  1737.65  1764.65  1785.89  1792.31
                             1865.06  1887.41  1892.66  1910.17  1935.15
                             1952.86  2010.74  2011.30  2057.99  2082.98
                             2132.63  2137.97  2144.32  2149.72  2165.93
                             2171.02  2191.00  2211.45  2262.58  2344.21
                             2382.95  2415.69  2428.99  4395.88  4396.43
                             4404.08  4498.70  4499.88  4505.87  4509.03
                             4514.80  4517.58  4597.95  4601.37  4606.21
                             4611.02  4620.68  4624.22  4630.03  4644.62
                             4649.70

 Zero-point correction=                           0.295897 (Hartree/Particle)
 Thermal correction to Energy=                    0.310147
 Thermal correction to Enthalpy=                  0.311091
 Thermal correction to Gibbs Free Energy=         0.254864
 Sum of electronic and zero-point Energies=           -620.205299
 Sum of electronic and thermal Energies=              -620.191049
 Sum of electronic and thermal Enthalpies=            -620.190104
 Sum of electronic and thermal Free Energies=         -620.246332

                     E (Thermal)             CV                S
                      KCal/Mol        Cal/Mol-Kelvin    Cal/Mol-Kelvin
 Total                  194.620             57.726            118.340
 Electronic               0.000              0.000              0.000
 Translational            0.889              2.981             41.932
 Rotational               0.889              2.981             32.601
 Vibrational            192.843             51.764             43.807
 Vibration     1          0.595              1.980              5.123
 Vibration     2          0.595              1.977              4.803
 Vibration     3          0.600              1.961              3.827
 Vibration     4          0.602              1.955              3.613
 Vibration     5          0.616              1.910              2.757
 Vibration     6          0.645              1.818              1.998
 Vibration     7          0.652              1.794              1.874
 Vibration     8          0.656              1.783              1.821
 Vibration     9          0.679              1.712              1.539
 Vibration    10          0.686              1.693              1.475
 Vibration    11          0.711              1.620              1.271
 Vibration    12          0.726              1.577              1.170
 Vibration    13          0.733              1.558              1.128
 Vibration    14          0.756              1.498              1.011
 Vibration    15          0.772              1.453              0.935
 Vibration    16          0.780              1.433              0.901
 Vibration    17          0.788              1.413              0.871
 Vibration    18          0.810              1.358              0.791
 Vibration    19          0.834              1.299              0.716
 Vibration    20          0.889              1.175              0.579
 Vibration    21          0.919              1.111              0.517
 Vibration    22          0.950              1.049              0.464

 Optimization completed.
    -- Stationary point found.
 Normal termination of Gaussian 16 at Wed Nov  1 02:24:40 2023.
