 Gaussian 16, Revision C.01,
 Gaussian 16:  ES64L-G16RevC.01  3-Jul-2019

 -----------------------------------------
 # opt freq=noraman m062x def2tzvp pop=nbo
 -----------------------------------------

 ----------
 Structure1
 ----------
 Symbolic Z-matrix:
 Charge =  0 Multiplicity = 1

 SCF Done:  E(RM062X) =  -927.784943400     A.U. after   13 cycles
 SCF Done:  E(RM062X) =  -927.789668532     A.U. after   11 cycles
 SCF Done:  E(RM062X) =  -927.789936676     A.U. after   11 cycles
 SCF Done:  E(RM062X) =  -927.789964782     A.U. after   10 cycles
 SCF Done:  E(RM062X) =  -927.789966746     A.U. after    7 cycles
 SCF Done:  E(RM062X) =  -927.789967022     A.U. after    7 cycles
 Optimization completed.
    -- Stationary point found.
 Normal termination of Gaussian 16 at Tue Nov 28 08:40:33 2023.

 --------------------------------------------------------------------
 #N Geom=AllCheck Guess=TCheck SCRF=Check GenChk RM062X/def2TZVP Freq
 --------------------------------------------------------------------

 Structure from the checkpoint file:  "ph_2hydropyrenemethyl_3_m062x.chk"
 ----------
 Structure1
 ----------
 Charge =  0 Multiplicity = 1

                         Standard orientation:
 ---------------------------------------------------------------------
 Center     Atomic      Atomic             Coordinates (Angstroms)
 Number     Number       Type             X           Y           Z
 ---------------------------------------------------------------------
      1          6           0       -1.603022   -1.159384   -0.300026
      2          6           0       -2.317417    0.000000   -0.000001
      3          6           0       -1.603022    1.159385    0.300022
      4          6           0       -0.217173    1.169759    0.305411
      5          1           0       -2.139705    2.064432    0.561838
      6          6           0       -0.217173   -1.169758   -0.305418
      7          6           0        0.485559    0.000001   -0.000003
      8          6           0        1.847394   -2.492297    0.160325
      9          6           0        0.570849   -2.398334   -0.669555
     10          1           0        1.584165   -2.679534    1.208320
     11          1           0        0.842012   -2.343558   -1.729897
     12          6           0        1.960501    0.000000   -0.000002
     13          6           0        2.649489   -1.216898    0.071280
     14          6           0        4.043937   -1.216259    0.088387
     15          6           0        4.712216   -0.000001    0.000005
     16          6           0        4.043938    1.216258   -0.088380
     17          6           0        2.649490    1.216898   -0.071281
     18          6           0        4.826670   -2.497371    0.200077
     19          1           0        5.797139   -0.000001    0.000008
     20          6           0        4.826673    2.497369   -0.200067
     21          6           0        0.570849    2.398337    0.669545
     22          6           0        1.847395    2.492296   -0.160332
     23          1           0        2.441904    3.342825    0.171217
     24          1           0       -0.041556    3.291563    0.540341
     25          1           0        0.842008    2.343566    1.729888
     26          1           0        1.584168    2.679528   -1.208329
     27          1           0        2.441904   -3.342824   -0.171228
     28          1           0       -0.041556   -3.291562   -0.540357
     29          1           0        4.675001   -3.136542   -0.672721
     30          1           0        5.892516   -2.289929    0.280568
     31          1           0        4.527061   -3.073017    1.077894
     32          1           0        5.892520    2.289927   -0.280540
     33          1           0        4.527078    3.073009   -1.077894
     34          1           0        4.674991    3.136548    0.672723
     35          1           0       -2.139706   -2.064431   -0.561842
     36          6           0       -6.598567   -0.000000    0.000004
     37          6           0       -5.899266   -1.097164    0.483752
     38          6           0       -4.512820   -1.096677    0.483164
     39          6           0       -3.797747   -0.000000    0.000000
     40          6           0       -4.512821    1.096677   -0.483160
     41          6           0       -5.899268    1.097164   -0.483745
     42          1           0       -7.680718   -0.000000    0.000006
     43          1           0       -6.435528   -1.954116    0.870827
     44          1           0       -3.974078   -1.945953    0.884685
     45          1           0       -3.974080    1.945953   -0.884683
     46          1           0       -6.435530    1.954116   -0.870819
 ---------------------------------------------------------------------

 SCF Done:  E(RM062X) =  -927.789967022     A.U. after    1 cycles

 The electronic state is 1-A.
 Alpha  occ. eigenvalues --  -10.54912 -10.54661 -10.54337 -10.54331 -10.54001
 Alpha  occ. eigenvalues --  -10.54000 -10.53986 -10.53968 -10.53955 -10.53911
 Alpha  occ. eigenvalues --  -10.53855 -10.53846 -10.53812 -10.53795 -10.53775
 Alpha  occ. eigenvalues --  -10.53653 -10.53653 -10.53573 -10.53572 -10.53302
 Alpha  occ. eigenvalues --  -10.53298 -10.52935 -10.52935 -10.52809  -0.99329
 Alpha  occ. eigenvalues --   -0.97047  -0.95220  -0.92445  -0.90302  -0.87699
 Alpha  occ. eigenvalues --   -0.85729  -0.84347  -0.84317  -0.82367  -0.80892
 Alpha  occ. eigenvalues --   -0.78260  -0.76211  -0.71468  -0.71245  -0.71158
 Alpha  occ. eigenvalues --   -0.68562  -0.66864  -0.66303  -0.62578  -0.60722
 Alpha  occ. eigenvalues --   -0.59516  -0.57067  -0.56219  -0.54228  -0.54099
 Alpha  occ. eigenvalues --   -0.53587  -0.52211  -0.51770  -0.50332  -0.49970
 Alpha  occ. eigenvalues --   -0.49100  -0.48658  -0.48317  -0.48004  -0.47453
 Alpha  occ. eigenvalues --   -0.46886  -0.45756  -0.45069  -0.44487  -0.44385
 Alpha  occ. eigenvalues --   -0.43947  -0.43638  -0.42914  -0.42542  -0.42268
 Alpha  occ. eigenvalues --   -0.41910  -0.40425  -0.39838  -0.38931  -0.38665
 Alpha  occ. eigenvalues --   -0.36097  -0.35898  -0.34001  -0.30820  -0.30007
 Alpha  occ. eigenvalues --   -0.29311  -0.27630  -0.25137
 Alpha virt. eigenvalues --   -0.01581   0.02007   0.02429   0.03065   0.03334
 Alpha virt. eigenvalues --    0.06467   0.06738   0.08126   0.08229   0.09155
 Alpha virt. eigenvalues --    0.09336   0.09977   0.10537   0.11497   0.11527

 Mulliken charges:
               1
     1  C   -0.266942
     2  C    0.135741
     3  C   -0.266943
     4  C    0.044786
     5  H    0.163799
     6  C    0.044786
     7  C    0.060462
     8  C   -0.372037
     9  C   -0.326591
    10  H    0.169234
    11  H    0.160763
    12  C    0.063241
    13  C   -0.018762
    14  C    0.144351
    15  C   -0.214272
    16  C    0.144351
    17  C   -0.018763
    18  C   -0.548045
    19  H    0.121197
    20  C   -0.548045
    21  C   -0.326590
    22  C   -0.372036
    23  H    0.160507
    24  H    0.145141
    25  H    0.160763
    26  H    0.169234
    27  H    0.160507
    28  H    0.145141
    29  H    0.164888
    30  H    0.139157
    31  H    0.167742
    32  H    0.139157
    33  H    0.167742
    34  H    0.164888
    35  H    0.163799
    36  C   -0.148703
    37  C   -0.152679
    38  C   -0.214351
    39  C    0.103589
    40  C   -0.214351
    41  C   -0.152679
    42  H    0.141447
    43  H    0.142050
    44  H    0.165637
    45  H    0.165637
    46  H    0.142050
 Sum of Mulliken charges =  -0.00000

 Dipole moment (field-independent basis, Debye):
    X=              0.6792    Y=              0.0000    Z=             -0.0000  Tot=              0.6792
 Quadrupole moment (field-independent basis, Debye-Ang):
   XX=           -130.9538   YY=           -128.3026   ZZ=           -147.1480
   XY=             -0.0000   XZ=             -0.0000   YZ=             -1.5102

  Exact polarizability:     425.236      -0.002     276.768       0.000      -5.641     156.253
 Approx polarizability:     445.836      -0.000     377.344       0.000      -8.857     234.187

 Summary of Natural Population Analysis:

                                       Natural Population
                Natural  -----------------------------------------------
    Atom  No    Charge         Core      Valence    Rydberg      Total
 -----------------------------------------------------------------------
      C    1   -0.19944      1.99905     4.18525    0.01514     6.19944
      C    2   -0.03441      1.99911     4.01691    0.01840     6.03441
      C    3   -0.19944      1.99905     4.18525    0.01514     6.19944
      C    4    0.01367      1.99911     3.96955    0.01767     5.98633
      H    5    0.20817      0.00000     0.78983    0.00201     0.79183
      C    6    0.01367      1.99911     3.96955    0.01767     5.98633
      C    7   -0.05893      1.99897     4.04186    0.01810     6.05893
      C    8   -0.41154      1.99940     4.39895    0.01319     6.41154
      C    9   -0.40488      1.99940     4.39293    0.01256     6.40488
      H   10    0.21130      0.00000     0.78684    0.00187     0.78870
      H   11    0.21195      0.00000     0.78661    0.00145     0.78805
      C   12   -0.04129      1.99900     4.02354    0.01875     6.04129
      C   13   -0.00020      1.99902     3.98523    0.01595     6.00020
      C   14   -0.01651      1.99907     4.00051    0.01694     6.01651
      C   15   -0.19276      1.99906     4.17697    0.01672     6.19276
      C   16   -0.01651      1.99907     4.00051    0.01694     6.01651
      C   17   -0.00020      1.99902     3.98523    0.01595     6.00020
      C   18   -0.62066      1.99945     4.60974    0.01146     6.62066
      H   19    0.19908      0.00000     0.79942    0.00151     0.80092
      C   20   -0.62066      1.99945     4.60974    0.01146     6.62066
      C   21   -0.40488      1.99940     4.39293    0.01256     6.40488
      C   22   -0.41154      1.99940     4.39895    0.01319     6.41154
      H   23    0.21568      0.00000     0.78305    0.00127     0.78432
      H   24    0.21381      0.00000     0.78504    0.00116     0.78619
      H   25    0.21195      0.00000     0.78661    0.00145     0.78805
      H   26    0.21130      0.00000     0.78684    0.00187     0.78870
      H   27    0.21568      0.00000     0.78305    0.00127     0.78432
      H   28    0.21381      0.00000     0.78504    0.00116     0.78619
      H   29    0.21419      0.00000     0.78455    0.00127     0.78581
      H   30    0.21442      0.00000     0.78472    0.00086     0.78558
      H   31    0.21500      0.00000     0.78388    0.00111     0.78500
      H   32    0.21442      0.00000     0.78472    0.00086     0.78558
      H   33    0.21500      0.00000     0.78388    0.00111     0.78500
      H   34    0.21419      0.00000     0.78455    0.00127     0.78581
      H   35    0.20817      0.00000     0.78983    0.00201     0.79183
      C   36   -0.21538      1.99922     4.19770    0.01846     6.21538
      C   37   -0.20471      1.99923     4.18711    0.01837     6.20471
      C   38   -0.19776      1.99915     4.18078    0.01783     6.19776
      C   39   -0.04693      1.99910     4.02783    0.02000     6.04693
      C   40   -0.19776      1.99915     4.18078    0.01783     6.19776
      C   41   -0.20471      1.99923     4.18711    0.01837     6.20471
      H   42    0.21284      0.00000     0.78615    0.00101     0.78716
      H   43    0.21270      0.00000     0.78627    0.00103     0.78730
      H   44    0.21372      0.00000     0.78512    0.00115     0.78628
      H   45    0.21372      0.00000     0.78512    0.00115     0.78628
      H   46    0.21270      0.00000     0.78627    0.00103     0.78730
 =======================================================================
   * Total *    0.00000     47.98021   117.60229    0.41750   166.00000

                      1                      2                      3
                      A                      A                      A
 Frequencies --     32.2522                50.5405                74.3501
 Red. masses --      4.7239                 3.6453                 4.5897
 Frc consts  --      0.0029                 0.0055                 0.0149
 IR Inten    --      0.1303                 0.0058                 0.1131

                      4                      5                      6
                      A                      A                      A
 Frequencies --     87.6472                90.5711               158.0839
 Red. masses --      4.0353                 3.2447                 2.1409
 Frc consts  --      0.0183                 0.0157                 0.0315
 IR Inten    --      0.2375                 0.0053                 0.1171

                      7                      8                      9
                      A                      A                      A
 Frequencies --    158.7916               171.5049               194.5604
 Red. masses --      2.2147                 2.4157                 1.1709
 Frc consts  --      0.0329                 0.0419                 0.0261
 IR Inten    --      5.0497                 0.2734                 0.0003

                     10                     11                     12
                      A                      A                      A
 Frequencies --    203.6687               218.4802               223.4760
 Red. masses --      1.3878                 3.9209                 4.8817
 Frc consts  --      0.0339                 0.1103                 0.1436
 IR Inten    --      0.4965                 0.1359                 0.0548

                     13                     14                     15
                      A                      A                      A
 Frequencies --    243.9485               264.3423               302.4465
 Red. masses --      2.7724                 2.5373                 2.9328
 Frc consts  --      0.0972                 0.1045                 0.1581
 IR Inten    --      0.2614                 0.4946                 0.7205

                     16                     17                     18
                      A                      A                      A
 Frequencies --    303.4656               335.3254               360.7981
 Red. masses --      2.7298                 3.4013                 2.6024
 Frc consts  --      0.1481                 0.2253                 0.1996
 IR Inten    --      0.0624                 0.1040                 0.6199

                     19                     20                     21
                      A                      A                      A
 Frequencies --    385.6899               410.1106               418.8691
 Red. masses --      4.3024                 4.3923                 2.9446
 Frc consts  --      0.3771                 0.4353                 0.3044
 IR Inten    --      1.0111                 0.8857                 0.1451

                     22                     23                     24
                      A                      A                      A
 Frequencies --    435.5362               453.9661               465.6796
 Red. masses --      5.9019                 3.1238                 3.7293
 Frc consts  --      0.6596                 0.3793                 0.4765
 IR Inten    --      2.7402                 0.0185                 1.6485

                     25                     26                     27
                      A                      A                      A
 Frequencies --    489.9477               520.0806               543.2426
 Red. masses --      3.9112                 3.3104                 3.6381
 Frc consts  --      0.5532                 0.5276                 0.6326
 IR Inten    --      0.4265                 0.5833                 1.6795

                     28                     29                     30
                      A                      A                      A
 Frequencies --    547.8451               561.8251               580.1414
 Red. masses --      4.0600                 4.5528                 3.5689
 Frc consts  --      0.7180                 0.8467                 0.7077
 IR Inten    --      3.3048                 0.1105                 1.9412

                     31                     32                     33
                      A                      A                      A
 Frequencies --    595.5094               630.3968               632.3811
 Red. masses --      3.3017                 2.9712                 4.9206
 Frc consts  --      0.6899                 0.6957                 1.1594
 IR Inten    --      0.0407                 3.1491                 0.9722

                     34                     35                     36
                      A                      A                      A
 Frequencies --    650.1585               657.1532               666.2834
 Red. masses --      4.5615                 5.2402                 3.3616
 Frc consts  --      1.1360                 1.3333                 0.8793
 IR Inten    --      2.4828                 5.3580                 1.6025

                     37                     38                     39
                      A                      A                      A
 Frequencies --    692.1328               723.3274               767.2655
 Red. masses --      3.4099                 1.7046                 3.3354
 Frc consts  --      0.9624                 0.5255                 1.1569
 IR Inten    --      3.9365                37.6977                 4.4487

                     40                     41                     42
                      A                      A                      A
 Frequencies --    794.5967               813.1773               819.6519
 Red. masses --      2.0128                 2.8534                 3.0838
 Frc consts  --      0.7488                 1.1117                 1.2207
 IR Inten    --     34.5004                 3.1027                 0.7964

                     43                     44                     45
                      A                      A                      A
 Frequencies --    835.7337               875.5448               889.6740
 Red. masses --      4.3040                 1.2505                 2.2076
 Frc consts  --      1.7712                 0.5648                 1.0295
 IR Inten    --      0.3316                 0.0770                 5.2709

                     46                     47                     48
                      A                      A                      A
 Frequencies --    896.0439               908.8338               912.8135
 Red. masses --      1.2876                 4.6544                 3.1881
 Frc consts  --      0.6091                 2.2651                 1.5651
 IR Inten    --      7.7007                 6.3699                 4.9240

                     49                     50                     51
                      A                      A                      A
 Frequencies --    923.0393               926.4484               958.9363
 Red. masses --      1.5890                 1.3445                 1.5438
 Frc consts  --      0.7976                 0.6799                 0.8364
 IR Inten    --     14.4748                 2.6255                 0.5720

                     52                     53                     54
                      A                      A                      A
 Frequencies --    998.3609              1004.0690              1005.3640
 Red. masses --      1.3740                 2.4348                 1.9717
 Frc consts  --      0.8069                 1.4462                 1.1742
 IR Inten    --      0.4305                 0.1932                 0.7789

                     55                     56                     57
                      A                      A                      A
 Frequencies --   1013.4698              1014.8281              1022.3663
 Red. masses --      1.6059                 1.2995                 5.6068
 Frc consts  --      0.9718                 0.7885                 3.4529
 IR Inten    --      0.4234                 0.0151                 0.3762

                     58                     59                     60
                      A                      A                      A
 Frequencies --   1033.6125              1052.2726              1055.2570
 Red. masses --      1.7357                 1.7694                 1.8165
 Frc consts  --      1.0926                 1.1544                 1.1918
 IR Inten    --      5.3395                 1.0133                 1.7263

                     61                     62                     63
                      A                      A                      A
 Frequencies --   1063.8835              1069.6933              1069.9272
 Red. masses --      2.3219                 1.9050                 1.8938
 Frc consts  --      1.5484                 1.2843                 1.2773
 IR Inten    --      4.8208                 3.0101                 0.2010

                     64                     65                     66
                      A                      A                      A
 Frequencies --   1081.4620              1094.6756              1103.9360
 Red. masses --      3.0643                 2.2337                 2.6579
 Frc consts  --      2.1116                 1.5770                 1.9084
 IR Inten    --      0.0731                 0.5045                 0.1366

                     67                     68                     69
                      A                      A                      A
 Frequencies --   1114.0406              1150.7747              1177.3758
 Red. masses --      1.5149                 3.0346                 1.1476
 Frc consts  --      1.1077                 2.3677                 0.9373
 IR Inten    --      4.7801                 0.3177                 0.0049

                     70                     71                     72
                      A                      A                      A
 Frequencies --   1189.3725              1198.0628              1206.9894
 Red. masses --      1.1800                 1.1917                 1.1389
 Frc consts  --      0.9834                 1.0078                 0.9775
 IR Inten    --      0.3420                 4.4510                 0.4585

                     73                     74                     75
                      A                      A                      A
 Frequencies --   1227.1438              1229.4579              1253.8280
 Red. masses --      1.4670                 1.4657                 2.1130
 Frc consts  --      1.3016                 1.3053                 1.9571
 IR Inten    --      2.9718                 0.0916                 2.8786

                     76                     77                     78
                      A                      A                      A
 Frequencies --   1265.3432              1269.5894              1274.2659
 Red. masses --      1.4467                 1.7118                 2.2303
 Frc consts  --      1.3647                 1.6256                 2.1337
 IR Inten    --      1.6347                 1.4766                 0.5049

                     79                     80                     81
                      A                      A                      A
 Frequencies --   1300.3510              1310.2063              1321.8886
 Red. masses --      3.7327                 3.3545                 2.4908
 Frc consts  --      3.7187                 3.3928                 2.5643
 IR Inten    --      0.1448                 2.0575                 5.9240

                     82                     83                     84
                      A                      A                      A
 Frequencies --   1341.5839              1354.0887              1354.1260
 Red. masses --      1.9816                 2.8201                 1.5309
 Frc consts  --      2.1013                 3.0466                 1.6539
 IR Inten    --      1.8602                 0.1864                 3.0481

                     85                     86                     87
                      A                      A                      A
 Frequencies --   1360.9026              1367.3936              1381.5610
 Red. masses --      1.6516                 2.3216                 1.5395
 Frc consts  --      1.8022                 2.5576                 1.7313
 IR Inten    --      1.9165                 0.0023                 0.9074

                     88                     89                     90
                      A                      A                      A
 Frequencies --   1407.3167              1414.0612              1417.6280
 Red. masses --      2.5567                 1.2487                 1.4448
 Frc consts  --      2.9834                 1.4712                 1.7107
 IR Inten    --      0.0381                 1.3860                 0.0396

                     91                     92                     93
                      A                      A                      A
 Frequencies --   1450.8773              1462.7689              1474.4709
 Red. masses --      2.8945                 3.1249                 1.0833
 Frc consts  --      3.5899                 3.9395                 1.3876
 IR Inten    --      1.1868                 8.0757                15.6982

                     94                     95                     96
                      A                      A                      A
 Frequencies --   1475.4720              1481.1159              1481.4667
 Red. masses --      1.1039                 1.1105                 1.1279
 Frc consts  --      1.4159                 1.4353                 1.4585
 IR Inten    --      0.4512                 0.0001                 9.5073

                     97                     98                     99
                      A                      A                      A
 Frequencies --   1489.4232              1495.8090              1495.9549
 Red. masses --      1.4698                 1.1104                 1.0577
 Frc consts  --      1.9211                 1.4638                 1.3946
 IR Inten    --      1.9884                 8.7290                 0.1577

                    100                    101                    102
                      A                      A                      A
 Frequencies --   1501.6787              1507.4618              1524.6420
 Red. masses --      1.7274                 1.3783                 2.7222
 Frc consts  --      2.2951                 1.8453                 3.7283
 IR Inten    --      3.7446                69.6936                15.4756

                    103                    104                    105
                      A                      A                      A
 Frequencies --   1532.2771              1553.1481              1635.6009
 Red. masses --      3.6609                 3.1198                 6.7334
 Frc consts  --      5.0643                 4.4341                10.6130
 IR Inten    --     15.3855                 3.4993                 1.6049

                    106                    107                    108
                      A                      A                      A
 Frequencies --   1647.9085              1655.3906              1677.1076
 Red. masses --      8.1683                 6.4613                 6.0526
 Frc consts  --     13.0692                10.4320                10.0303
 IR Inten    --      5.4089                 1.9578                12.8454

                    109                    110                    111
                      A                      A                      A
 Frequencies --   1679.9438              1680.1507              3030.8808
 Red. masses --      8.0120                 6.9142                 1.0718
 Frc consts  --     13.3223                11.4997                 5.8008
 IR Inten    --     10.7241                13.2406                28.1613

                    112                    113                    114
                      A                      A                      A
 Frequencies --   3031.1541              3044.7498              3044.8336
 Red. masses --      1.0719                 1.0665                 1.0665
 Frc consts  --      5.8023                 5.8255                 5.8257
 IR Inten    --      0.3148                 1.1545                41.1153

                    115                    116                    117
                      A                      A                      A
 Frequencies --   3059.6623              3060.0004              3113.1388
 Red. masses --      1.0382                 1.0382                 1.0954
 Frc consts  --      5.7262                 5.7275                 6.2552
 IR Inten    --     33.9509                13.7238                30.1070

                    118                    119                    120
                      A                      A                      A
 Frequencies --   3113.2675              3115.3232              3115.4114
 Red. masses --      1.0953                 1.0999                 1.0998
 Frc consts  --      6.2550                 6.2893                 6.2894
 IR Inten    --     10.5680                 0.0414                23.4285

                    121                    122                    123
                      A                      A                      A
 Frequencies --   3127.5638              3127.6306              3150.7513
 Red. masses --      1.0914                 1.0912                 1.1005
 Frc consts  --      6.2897                 6.2891                 6.4369
 IR Inten    --     27.6190                13.1488                24.9745

                    124                    125                    126
                      A                      A                      A
 Frequencies --   3150.8922              3183.7754              3190.3090
 Red. masses --      1.1004                 1.0900                 1.0900
 Frc consts  --      6.4368                 6.5099                 6.5363
 IR Inten    --      1.3787                19.8521                 6.4127

                    127                    128                    129
                      A                      A                      A
 Frequencies --   3191.1768              3199.4635              3204.4892
 Red. masses --      1.0902                 1.0852                 1.0876
 Frc consts  --      6.5414                 6.5453                 6.5802
 IR Inten    --     11.4556                 2.5344                 0.0185

                    130                    131                    132
                      A                      A                      A
 Frequencies --   3213.0180              3219.4163              3228.9949
 Red. masses --      1.0912                 1.0948                 1.0986
 Frc consts  --      6.6371                 6.6855                 6.7487
 IR Inten    --      4.4894                16.5589                14.1213

 - Thermochemistry -
 -------------------
 Temperature   298.150 Kelvin.  Pressure   1.00000 Atm.
 Atom     1 has atomic number  6 and mass  12.00000

 Molecular mass:   310.17215 amu.
 Principal axes and moments of inertia in atomic units:
                           1         2         3
     Eigenvalues --  2924.73416********************
           X            1.00000  -0.00000   0.00000
           Y            0.00000   1.00000  -0.00256
           Z           -0.00000   0.00256   1.00000
 This molecule is an asymmetric top.
 Rotational symmetry number  1.
 Warning -- assumption of classical behavior for rotation
           may cause significant error
 Rotational temperatures (Kelvin)      0.02961     0.00590     0.00501
 Rotational constants (GHZ):           0.61706     0.12301     0.10448
 Zero-point vibrational energy    1030256.2 (Joules/Mol)
                                  246.23715 (Kcal/Mol)
 Warning -- explicit consideration of  31 degrees of freedom as
           vibrations may cause significant error
 Vibrational temperatures:     46.40    72.72   106.97   126.10   130.31
          (Kelvin)            227.45   228.47   246.76   279.93   293.03
                              314.34   321.53   350.99   380.33   435.15
                              436.62   482.46   519.11   554.92   590.06
                              602.66   626.64   653.16   670.01   704.93
                              748.28   781.60   788.23   808.34   834.69
                              856.81   907.00   909.86   935.43   945.50
                              958.63   995.82  1040.71  1103.92  1143.25
                             1169.98  1179.30  1202.43  1259.71  1280.04
                             1289.21  1307.61  1313.33  1328.05  1332.95
                             1379.70  1436.42  1444.63  1446.49  1458.16
                             1460.11  1470.96  1487.14  1513.99  1518.28
                             1530.69  1539.05  1539.39  1555.98  1574.99
                             1588.32  1602.86  1655.71  1693.98  1711.24
                             1723.75  1736.59  1765.59  1768.92  1803.98
                             1820.55  1826.66  1833.38  1870.92  1885.09
                             1901.90  1930.24  1948.23  1948.29  1958.04
                             1967.37  1987.76  2024.81  2034.52  2039.65
                             2087.49  2104.60  2121.43  2122.88  2131.00
                             2131.50  2142.95  2152.14  2152.35  2160.58
                             2168.90  2193.62  2204.61  2234.63  2353.26
                             2370.97  2381.74  2412.98  2417.06  2417.36
                             4360.76  4361.15  4380.72  4380.84  4402.17
                             4402.66  4479.11  4479.30  4482.26  4482.38
                             4499.87  4499.96  4533.23  4533.43  4580.74
                             4590.14  4591.39  4603.31  4610.55  4622.82
                             4632.02  4645.80

 Zero-point correction=                           0.392404 (Hartree/Particle)
 Thermal correction to Energy=                    0.411403
 Thermal correction to Enthalpy=                  0.412347
 Thermal correction to Gibbs Free Energy=         0.345834
 Sum of electronic and zero-point Energies=           -927.397563
 Sum of electronic and thermal Energies=              -927.378564
 Sum of electronic and thermal Enthalpies=            -927.377620
 Sum of electronic and thermal Free Energies=         -927.444133

                     E (Thermal)             CV                S
                      KCal/Mol        Cal/Mol-Kelvin    Cal/Mol-Kelvin
 Total                  258.159             78.756            139.988
 Electronic               0.000              0.000              0.000
 Translational            0.889              2.981             43.092
 Rotational               0.889              2.981             34.960
 Vibrational            256.382             72.795             61.936
 Vibration     1          0.594              1.983              5.686
 Vibration     2          0.595              1.977              4.796
 Vibration     3          0.599              1.966              4.035
 Vibration     4          0.601              1.958              3.712
 Vibration     5          0.602              1.956              3.648
 Vibration     6          0.621              1.894              2.573
 Vibration     7          0.621              1.893              2.564
 Vibration     8          0.626              1.878              2.419
 Vibration     9          0.635              1.847              2.184
 Vibration    10          0.639              1.835              2.100
 Vibration    11          0.646              1.813              1.972
 Vibration    12          0.649              1.805              1.931
 Vibration    13          0.659              1.773              1.774
 Vibration    14          0.671              1.738              1.633
 Vibration    15          0.694              1.669              1.403
 Vibration    16          0.695              1.667              1.398
 Vibration    17          0.716              1.605              1.234
 Vibration    18          0.735              1.553              1.119
 Vibration    19          0.754              1.501              1.017
 Vibration    20          0.774              1.448              0.926
 Vibration    21          0.782              1.429              0.896
 Vibration    22          0.796              1.393              0.841
 Vibration    23          0.812              1.352              0.784
 Vibration    24          0.823              1.326              0.750
 Vibration    25          0.846              1.272              0.684
 Vibration    26          0.875              1.206              0.610
 Vibration    27          0.898              1.154              0.558
 Vibration    28          0.903              1.144              0.549
 Vibration    29          0.918              1.114              0.520
 Vibration    30          0.937              1.074              0.485
 Vibration    31          0.953              1.041              0.457

                           ! Non-Optimized Parameters !
 Normal termination of Gaussian 16 at Tue Nov 28 15:18:12 2023.
