 Gaussian 16, Revision C.01,
 Gaussian 16:  ES64L-G16RevC.01  3-Jul-2019

 -----------------------------------------
 # opt freq=noraman m062x def2tzvp pop=nbo
 -----------------------------------------

 ------------
 Structure697
 ------------
 Symbolic Z-matrix:
 Charge =  0 Multiplicity = 1

 SCF Done:  E(RM062X) =  -770.536334499     A.U. after   14 cycles
 SCF Done:  E(RM062X) =  -770.541438787     A.U. after   13 cycles
 SCF Done:  E(RM062X) =  -770.541840837     A.U. after   12 cycles
 SCF Done:  E(RM062X) =  -770.541872009     A.U. after   10 cycles
 SCF Done:  E(RM062X) =  -770.541873721     A.U. after    7 cycles
 Optimization completed.
    -- Stationary point found.
 Normal termination of Gaussian 16 at Wed Nov  8 09:47:25 2023.

 --------------------------------------------------------------------
 #N Geom=AllCheck Guess=TCheck SCRF=Check GenChk RM062X/def2TZVP Freq
 --------------------------------------------------------------------

 Structure from the checkpoint file:  "ph_2phenanthryl_2_1_m062x.chk"
 ------------
 Structure697
 ------------
 Charge =  0 Multiplicity = 1

                         Standard orientation:
 ---------------------------------------------------------------------
 Center     Atomic      Atomic             Coordinates (Angstroms)
 Number     Number       Type             X           Y           Z
 ---------------------------------------------------------------------
      1          6           0       -5.882334    0.026839   -0.003863
      2          6           0       -5.228555   -1.031479   -0.619641
      3          6           0       -3.843797   -1.098510   -0.606392
      4          6           0       -3.086978   -0.107519    0.019561
      5          6           0       -3.755756    0.950347    0.636143
      6          6           0       -5.140439    1.017434    0.624669
      7          1           0       -6.963171    0.078573   -0.012606
      8          1           0       -5.798711   -1.804526   -1.118553
      9          1           0       -3.339959   -1.915069   -1.108574
     10          1           0       -3.183414    1.712457    1.150303
     11          1           0       -5.642124    1.841268    1.115810
     12          6           0        0.422015   -1.487147    0.194693
     13          6           0       -0.947549   -1.411262    0.184403
     14          6           0       -1.608378   -0.177121    0.027101
     15          6           0       -0.837325    0.955215   -0.120202
     16          1           0       -1.533954   -2.310371    0.326014
     17          1           0       -1.315255    1.916836   -0.269283
     18          6           0        1.222759   -0.338995    0.044317
     19          6           0        0.567094    0.900704   -0.115833
     20          6           0        1.338887    2.098513   -0.279911
     21          6           0        2.686244    2.062354   -0.277281
     22          6           0        3.393869    0.826077   -0.112504
     23          6           0        2.674503   -0.378772    0.048040
     24          1           0        0.810125    3.035749   -0.405191
     25          1           0        3.264270    2.970422   -0.400212
     26          6           0        3.406629   -1.571507    0.205219
     27          6           0        4.801120    0.804374   -0.110650
     28          6           0        4.780348   -1.570805    0.204356
     29          6           0        5.488989   -0.371909    0.045169
     30          1           0        6.571028   -0.377234    0.045296
     31          1           0        0.882762   -2.455075    0.330664
     32          1           0        2.888879   -2.511735    0.329796
     33          1           0        5.333675    1.739810   -0.235070
     34          1           0        5.317762   -2.502083    0.327240
 ---------------------------------------------------------------------

 SCF Done:  E(RM062X) =  -770.541873721     A.U. after    1 cycles

 The electronic state is 1-A.
 Alpha  occ. eigenvalues --  -10.55611 -10.55546 -10.55417 -10.55368 -10.55323
 Alpha  occ. eigenvalues --  -10.55249 -10.54540 -10.54499 -10.54445 -10.54410
 Alpha  occ. eigenvalues --  -10.54409 -10.54397 -10.54394 -10.54379 -10.54364
 Alpha  occ. eigenvalues --  -10.54349 -10.54293 -10.54276 -10.54271 -10.54207
 Alpha  occ. eigenvalues --   -0.99699  -0.97505  -0.95520  -0.91711  -0.88827
 Alpha  occ. eigenvalues --   -0.85984  -0.85247  -0.84663  -0.81670  -0.80987
 Alpha  occ. eigenvalues --   -0.72801  -0.71685  -0.70513  -0.68935  -0.67776
 Alpha  occ. eigenvalues --   -0.66232  -0.61646  -0.61116  -0.58505  -0.57481
 Alpha  occ. eigenvalues --   -0.55371  -0.54704  -0.52574  -0.52008  -0.50609
 Alpha  occ. eigenvalues --   -0.50176  -0.49405  -0.49093  -0.49048  -0.48130
 Alpha  occ. eigenvalues --   -0.47731  -0.45974  -0.44922  -0.43961  -0.43214
 Alpha  occ. eigenvalues --   -0.42435  -0.40824  -0.40291  -0.39031  -0.38553
 Alpha  occ. eigenvalues --   -0.38137  -0.35450  -0.32366  -0.31222  -0.31200
 Alpha  occ. eigenvalues --   -0.26841  -0.26738
 Alpha virt. eigenvalues --   -0.02292  -0.01752   0.01738   0.01996   0.02965
 Alpha virt. eigenvalues --    0.06382   0.08146   0.08274   0.08517   0.09441
 Alpha virt. eigenvalues --    0.10182   0.11094   0.11541   0.11803   0.12879

 Mulliken charges:
               1
     1  C   -0.148383
     2  C   -0.152389
     3  C   -0.215829
     4  C    0.113581
     5  C   -0.216306
     6  C   -0.151183
     7  H    0.142990
     8  H    0.143590
     9  H    0.166425
    10  H    0.167316
    11  H    0.143565
    12  C   -0.224016
    13  C   -0.223703
    14  C    0.104427
    15  C   -0.257734
    16  H    0.165411
    17  H    0.171334
    18  C    0.106632
    19  C    0.116862
    20  C   -0.218010
    21  C   -0.191897
    22  C    0.100221
    23  C    0.099190
    24  H    0.135873
    25  H    0.136731
    26  C   -0.228094
    27  C   -0.179871
    28  C   -0.147802
    29  C   -0.149493
    30  H    0.142582
    31  H    0.134959
    32  H    0.135981
    33  H    0.134900
    34  H    0.142137
 Sum of Mulliken charges =  -0.00000

 Dipole moment (field-independent basis, Debye):
    X=             -0.0271    Y=             -0.0225    Z=              0.0026  Tot=              0.0353
 Quadrupole moment (field-independent basis, Debye-Ang):
   XX=           -100.0962   YY=           -103.3310   ZZ=           -123.3640
   XY=             -0.2015   XZ=              0.2051   YZ=              1.2193

  Exact polarizability:     398.670      -3.093     216.418       1.097       3.542     119.968
 Approx polarizability:     433.340      -2.234     323.586       1.403       5.407     177.143

 Summary of Natural Population Analysis:

                                       Natural Population
                Natural  -----------------------------------------------
    Atom  No    Charge         Core      Valence    Rydberg      Total
 -----------------------------------------------------------------------
      C    1   -0.21269      1.99922     4.19510    0.01837     6.21269
      C    2   -0.20386      1.99923     4.18623    0.01841     6.20386
      C    3   -0.19711      1.99914     4.18008    0.01789     6.19711
      C    4   -0.05032      1.99910     4.03118    0.02004     6.05032
      C    5   -0.19603      1.99914     4.17908    0.01781     6.19603
      C    6   -0.20388      1.99923     4.18630    0.01836     6.20388
      H    7    0.21376      0.00000     0.78524    0.00100     0.78624
      H    8    0.21377      0.00000     0.78521    0.00102     0.78623
      H    9    0.21411      0.00000     0.78468    0.00121     0.78589
      H   10    0.21449      0.00000     0.78437    0.00114     0.78551
      H   11    0.21377      0.00000     0.78520    0.00103     0.78623
      C   12   -0.17690      1.99917     4.16079    0.01694     6.17690
      C   13   -0.19095      1.99916     4.17453    0.01726     6.19095
      C   14   -0.04720      1.99909     4.02910    0.01900     6.04720
      C   15   -0.16711      1.99908     4.15227    0.01577     6.16711
      H   16    0.21533      0.00000     0.78356    0.00112     0.78467
      H   17    0.20932      0.00000     0.78853    0.00215     0.79068
      C   18   -0.03771      1.99909     4.01923    0.01940     6.03771
      C   19   -0.05644      1.99912     4.03978    0.01754     6.05644
      C   20   -0.17947      1.99915     4.16245    0.01787     6.17947
      C   21   -0.17736      1.99915     4.16089    0.01732     6.17736
      C   22   -0.06315      1.99912     4.04441    0.01961     6.06315
      C   23   -0.03577      1.99909     4.01739    0.01929     6.03577
      H   24    0.21196      0.00000     0.78691    0.00113     0.78804
      H   25    0.21188      0.00000     0.78695    0.00117     0.78812
      C   26   -0.18467      1.99917     4.16809    0.01741     6.18467
      C   27   -0.17911      1.99917     4.16244    0.01750     6.17911
      C   28   -0.20473      1.99923     4.18731    0.01819     6.20473
      C   29   -0.21001      1.99922     4.19244    0.01835     6.21001
      H   30    0.21464      0.00000     0.78436    0.00100     0.78536
      H   31    0.20934      0.00000     0.78938    0.00127     0.79066
      H   32    0.20810      0.00000     0.79058    0.00133     0.79190
      H   33    0.21051      0.00000     0.78829    0.00120     0.78949
      H   34    0.21350      0.00000     0.78548    0.00101     0.78650
 =======================================================================
   * Total *    0.00000     39.98307    93.63784    0.37909   134.00000

                      1                      2                      3
                      A                      A                      A
 Frequencies --     40.4540                53.8068                80.7607
 Red. masses --      5.3885                 3.8298                 4.8837
 Frc consts  --      0.0052                 0.0065                 0.0188
 IR Inten    --      0.2647                 0.0305                 0.1599

                      4                      5                      6
                      A                      A                      A
 Frequencies --    104.3412               122.9132               203.9564
 Red. masses --      3.7460                 4.7403                 5.1497
 Frc consts  --      0.0240                 0.0422                 0.1262
 IR Inten    --      0.0228                 0.0187                 0.1861

                      7                      8                      9
                      A                      A                      A
 Frequencies --    223.5984               233.8944               254.0190
 Red. masses --      5.3926                 3.6761                 5.2103
 Frc consts  --      0.1588                 0.1185                 0.1981
 IR Inten    --      0.7081                 3.4887                 0.1191

                     10                     11                     12
                      A                      A                      A
 Frequencies --    332.3386               393.8261               405.7124
 Red. masses --      4.6192                 4.4081                 3.3060
 Frc consts  --      0.3006                 0.4028                 0.3206
 IR Inten    --      0.1146                 0.4742                 0.2798

                     13                     14                     15
                      A                      A                      A
 Frequencies --    418.6951               444.9506               462.8842
 Red. masses --      2.9558                 3.3327                 4.9671
 Frc consts  --      0.3053                 0.3887                 0.6270
 IR Inten    --      0.1462                 9.3505                 6.2716

                     16                     17                     18
                      A                      A                      A
 Frequencies --    474.4064               505.8783               532.1074
 Red. masses --      4.6773                 5.2967                 3.8236
 Frc consts  --      0.6202                 0.7986                 0.6379
 IR Inten    --      1.1067                 1.3633                 3.3525

                     19                     20                     21
                      A                      A                      A
 Frequencies --    549.8548               556.3502               566.4994
 Red. masses --      2.9624                 3.1928                 6.1777
 Frc consts  --      0.5277                 0.5823                 1.1681
 IR Inten    --      0.0682                 4.5826                 2.4186

                     22                     23                     24
                      A                      A                      A
 Frequencies --    629.7634               633.9910               658.6633
 Red. masses --      6.7460                 6.3926                 3.2163
 Frc consts  --      1.5764                 1.5139                 0.8221
 IR Inten    --      0.0338                 0.0322                 0.9834

                     25                     26                     27
                      A                      A                      A
 Frequencies --    696.7901               723.1582               742.2287
 Red. masses --      5.9858                 1.7265                 3.8534
 Frc consts  --      1.7123                 0.5320                 1.2507
 IR Inten    --     13.7366                36.4784                 2.0922

                     28                     29                     30
                      A                      A                      A
 Frequencies --    744.7007               771.4688               774.0690
 Red. masses --      3.6423                 1.3288                 5.1839
 Frc consts  --      1.1901                 0.4660                 1.8301
 IR Inten    --      5.6891                50.0541                 4.7712

                     31                     32                     33
                      A                      A                      A
 Frequencies --    789.8940               816.5628               843.3539
 Red. masses --      1.9312                 1.9248                 1.4599
 Frc consts  --      0.7099                 0.7562                 0.6118
 IR Inten    --     36.5319                 1.7455                42.9189

                     34                     35                     36
                      A                      A                      A
 Frequencies --    864.6565               876.2541               877.5756
 Red. masses --      1.8539                 1.2652                 4.8458
 Frc consts  --      0.8166                 0.5724                 2.1988
 IR Inten    --      4.1884                 0.0339                 4.0103

                     37                     38                     39
                      A                      A                      A
 Frequencies --    904.6052               917.2007               937.0308
 Red. masses --      2.0203                 3.9942                 1.5030
 Frc consts  --      0.9741                 1.9798                 0.7775
 IR Inten    --      3.5727                 0.4868                15.9809

                     40                     41                     42
                      A                      A                      A
 Frequencies --    958.2299               971.1087               986.6781
 Red. masses --      1.4992                 1.3915                 1.3384
 Frc consts  --      0.8110                 0.7732                 0.7677
 IR Inten    --      1.3924                 1.7682                 0.7419

                     43                     44                     45
                      A                      A                      A
 Frequencies --    999.4728               999.7678              1006.8783
 Red. masses --      1.3748                 1.3199                 1.3173
 Frc consts  --      0.8092                 0.7773                 0.7868
 IR Inten    --      0.2320                 0.0546                 0.0696

                     46                     47                     48
                      A                      A                      A
 Frequencies --   1016.6063              1021.0872              1025.2843
 Red. masses --      1.2959                 6.1517                 6.5868
 Frc consts  --      0.7891                 3.7790                 4.0795
 IR Inten    --      0.0395                 2.6373                 1.6790

                     49                     50                     51
                      A                      A                      A
 Frequencies --   1060.2966              1072.8601              1084.5368
 Red. masses --      2.8931                 2.1343                 1.9534
 Frc consts  --      1.9163                 1.4474                 1.3537
 IR Inten    --      4.8040                 4.0508                 0.6656

                     52                     53                     54
                      A                      A                      A
 Frequencies --   1114.7793              1133.0931              1169.7512
 Red. masses --      1.5181                 2.1608                 1.3273
 Frc consts  --      1.1116                 1.6345                 1.0701
 IR Inten    --      4.4061                 1.2922                 1.1786

                     55                     56                     57
                      A                      A                      A
 Frequencies --   1177.7869              1183.7621              1198.4019
 Red. masses --      1.1515                 1.2564                 1.2402
 Frc consts  --      0.9411                 1.0373                 1.0494
 IR Inten    --      0.0113                 0.3591                 0.6743

                     58                     59                     60
                      A                      A                      A
 Frequencies --   1208.5454              1210.4704              1240.4836
 Red. masses --      1.4335                 1.3108                 1.7469
 Frc consts  --      1.2336                 1.1316                 1.5838
 IR Inten    --      3.8845                 0.9532                 0.9196

                     61                     62                     63
                      A                      A                      A
 Frequencies --   1275.5653              1302.6097              1307.4091
 Red. masses --      1.5977                 2.6794                 2.0011
 Frc consts  --      1.5316                 2.6786                 2.0153
 IR Inten    --      5.0735                 0.2468                 3.1180

                     64                     65                     66
                      A                      A                      A
 Frequencies --   1312.8604              1346.7679              1353.4017
 Red. masses --      2.8421                 2.4712                 1.5690
 Frc consts  --      2.8862                 2.6408                 1.6933
 IR Inten    --      3.5598                 1.5152                 0.5565

                     67                     68                     69
                      A                      A                      A
 Frequencies --   1376.4465              1387.8404              1428.3762
 Red. masses --      4.3570                 3.5287                 2.8477
 Frc consts  --      4.8636                 4.0044                 3.4232
 IR Inten    --      0.0560                 0.1684                 1.9809

                     70                     71                     72
                      A                      A                      A
 Frequencies --   1467.1380              1484.0124              1495.3607
 Red. masses --      2.2625                 2.9925                 2.7438
 Frc consts  --      2.8694                 3.8829                 3.6148
 IR Inten    --      5.2484                 2.0673                 2.2460

                     73                     74                     75
                      A                      A                      A
 Frequencies --   1509.9626              1543.1561              1550.1688
 Red. masses --      2.4149                 3.1675                 2.8449
 Frc consts  --      3.2440                 4.4441                 4.0278
 IR Inten    --     31.0338                21.5375                 0.6471

                     76                     77                     78
                      A                      A                      A
 Frequencies --   1589.9346              1642.3923              1653.2556
 Red. masses --      3.9330                 7.0070                 6.4080
 Frc consts  --      5.8578                11.1362                10.3194
 IR Inten    --      0.5323                 1.4660                 1.3000

                     79                     80                     81
                      A                      A                      A
 Frequencies --   1677.6295              1679.3196              1692.4056
 Red. masses --      6.0153                 5.9607                 6.5301
 Frc consts  --      9.9746                 9.9041                11.0200
 IR Inten    --     15.1953                 1.3623                 3.9597

                     82                     83                     84
                      A                      A                      A
 Frequencies --   1703.2902              3193.2945              3196.1871
 Red. masses --      6.7562                 1.0867                 1.0881
 Frc consts  --     11.5485                 6.5290                 6.5489
 IR Inten    --      4.8828                 0.4918                 2.6835

                     85                     86                     87
                      A                      A                      A
 Frequencies --   3196.8199              3199.7262              3203.6348
 Red. masses --      1.0889                 1.0859                 1.0880
 Frc consts  --      6.5567                 6.5507                 6.5791
 IR Inten    --      8.7531                 2.4444                 0.8529

                     88                     89                     90
                      A                      A                      A
 Frequencies --   3207.4444              3209.7033              3212.1591
 Red. masses --      1.0884                 1.0895                 1.0970
 Frc consts  --      6.5974                 6.6132                 6.6688
 IR Inten    --      2.5323                 5.8405                15.0955

                     91                     92                     93
                      A                      A                      A
 Frequencies --   3213.3841              3219.5968              3223.5955
 Red. masses --      1.0908                 1.0946                 1.0943
 Frc consts  --      6.6362                 6.6854                 6.7000
 IR Inten    --      1.6165                15.0029                12.7832

                     94                     95                     96
                      A                      A                      A
 Frequencies --   3229.3815              3230.6273              3248.8220
 Red. masses --      1.0985                 1.0964                 1.0903
 Frc consts  --      6.7500                 6.7421                 6.7804
 IR Inten    --     10.7258                 5.3280                 9.7568

 - Thermochemistry -
 -------------------
 Temperature   298.150 Kelvin.  Pressure   1.00000 Atm.
 Atom     1 has atomic number  6 and mass  12.00000

 Molecular mass:   254.10955 amu.
 Principal axes and moments of inertia in atomic units:
                           1         2         3
     Eigenvalues --  1419.65839********************
           X            1.00000  -0.00079   0.00017
           Y            0.00078   0.99999   0.00465
           Z           -0.00018  -0.00465   0.99999
 This molecule is an asymmetric top.
 Rotational symmetry number  1.
 Warning -- assumption of classical behavior for rotation
           may cause significant error
 Rotational temperatures (Kelvin)      0.06101     0.00742     0.00672
 Rotational constants (GHZ):           1.27125     0.15455     0.14001
 Zero-point vibrational energy     728327.1 (Joules/Mol)
                                  174.07434 (Kcal/Mol)
 Warning -- explicit consideration of  21 degrees of freedom as
           vibrations may cause significant error
 Vibrational temperatures:     58.20    77.42   116.20   150.12   176.84
          (Kelvin)            293.45   321.71   336.52   365.48   478.16
                              566.63   583.73   602.41   640.18   665.99
                              682.56   727.85   765.58   791.12   800.46
                              815.07   906.09   912.17   947.67  1002.53
                             1040.46  1067.90  1071.46  1109.97  1113.71
                             1136.48  1174.85  1213.40  1244.05  1260.73
                             1262.64  1301.53  1319.65  1348.18  1378.68
                             1397.21  1419.61  1438.02  1438.44  1448.67
                             1462.67  1469.12  1475.16  1525.53  1543.61
                             1560.41  1603.92  1630.27  1683.01  1694.57
                             1703.17  1724.23  1738.83  1741.60  1784.78
                             1835.25  1874.16  1881.07  1888.91  1937.70
                             1947.24  1980.40  1996.79  2055.11  2110.88
                             2135.16  2151.49  2172.50  2220.26  2230.35
                             2287.56  2363.04  2378.67  2413.73  2416.17
                             2434.99  2450.65  4594.44  4598.60  4599.51
                             4603.69  4609.32  4614.80  4618.05  4621.58
                             4623.34  4632.28  4638.03  4646.36  4648.15
                             4674.33

 Zero-point correction=                           0.277405 (Hartree/Particle)
 Thermal correction to Energy=                    0.291479
 Thermal correction to Enthalpy=                  0.292423
 Thermal correction to Gibbs Free Energy=         0.235819
 Sum of electronic and zero-point Energies=           -770.264469
 Sum of electronic and thermal Energies=              -770.250395
 Sum of electronic and thermal Enthalpies=            -770.249451
 Sum of electronic and thermal Free Energies=         -770.306055

                     E (Thermal)             CV                S
                      KCal/Mol        Cal/Mol-Kelvin    Cal/Mol-Kelvin
 Total                  182.906             59.177            119.134
 Electronic               0.000              0.000              0.000
 Translational            0.889              2.981             42.498
 Rotational               0.889              2.981             33.724
 Vibrational            181.128             53.215             42.912
 Vibration     1          0.594              1.981              5.237
 Vibration     2          0.596              1.976              4.672
 Vibration     3          0.600              1.962              3.872
 Vibration     4          0.605              1.946              3.372
 Vibration     5          0.610              1.930              3.054
 Vibration     6          0.640              1.834              2.097
 Vibration     7          0.649              1.805              1.930
 Vibration     8          0.654              1.789              1.849
 Vibration     9          0.665              1.756              1.703
 Vibration    10          0.714              1.611              1.249
 Vibration    11          0.761              1.483              0.986
 Vibration    12          0.771              1.458              0.942
 Vibration    13          0.782              1.430              0.896
 Vibration    14          0.804              1.372              0.811
 Vibration    15          0.821              1.332              0.758
 Vibration    16          0.831              1.307              0.725
 Vibration    17          0.861              1.237              0.644
 Vibration    18          0.887              1.179              0.583
 Vibration    19          0.905              1.140              0.544
 Vibration    20          0.912              1.126              0.531
 Vibration    21          0.922              1.104              0.511

 Optimization completed.
    -- Stationary point found.
 Normal termination of Gaussian 16 at Wed Nov  8 11:54:49 2023.
