 Gaussian 16, Revision C.01,
 Gaussian 16:  ES64L-G16RevC.01  3-Jul-2019

 -----------------------------------------
 # opt freq=noraman m062x def2tzvp pop=nbo
 -----------------------------------------

 ----------
 Structure1
 ----------
 Symbolic Z-matrix:
 Charge =  0 Multiplicity = 1

 SCF Done:  E(RM062X) =  -924.168940450     A.U. after   14 cycles
 SCF Done:  E(RM062X) =  -924.177656409     A.U. after   13 cycles
 SCF Done:  E(RM062X) =  -924.178314676     A.U. after   12 cycles
 SCF Done:  E(RM062X) =  -924.178356045     A.U. after   11 cycles
 SCF Done:  E(RM062X) =  -924.178359506     A.U. after    8 cycles
 SCF Done:  E(RM062X) =  -924.178359966     A.U. after    7 cycles
 SCF Done:  E(RM062X) =  -924.178360041     A.U. after    6 cycles
 Optimization completed.
    -- Stationary point found.
 Normal termination of Gaussian 16 at Tue Nov 28 08:15:19 2023.

 --------------------------------------------------------------------
 #N Geom=AllCheck Guess=TCheck SCRF=Check GenChk RM062X/def2TZVP Freq
 --------------------------------------------------------------------

 Structure from the checkpoint file:  "ph_2triphenylene_2_1_m062x.chk"
 ----------
 Structure1
 ----------
 Charge =  0 Multiplicity = 1

                         Standard orientation:
 ---------------------------------------------------------------------
 Center     Atomic      Atomic             Coordinates (Angstroms)
 Number     Number       Type             X           Y           Z
 ---------------------------------------------------------------------
      1          6           0        5.745615   -0.841107   -0.709195
      2          6           0        4.383297   -1.098407   -0.699795
      3          6           0        3.508652   -0.288148    0.024701
      4          6           0        4.036856    0.784086    0.744334
      5          6           0        5.399201    1.041245    0.736841
      6          6           0        6.258887    0.230028    0.009096
      7          6           0        2.054082   -0.562397    0.028724
      8          6           0        1.570024   -1.876406    0.076223
      9          1           0        3.374891    1.404344    1.336053
     10          1           0        5.791759    1.872342    1.308501
     11          1           0        7.322266    0.430338    0.003095
     12          6           0        1.135454    0.467946   -0.015467
     13          6           0        0.219223   -2.119641    0.084967
     14          1           0       -0.108461   -3.146679    0.135324
     15          1           0        2.266413   -2.703405    0.133782
     16          1           0        1.519764    1.474714   -0.080272
     17          6           0       -0.250368    0.245678   -0.011287
     18          6           0       -0.723557   -1.078270    0.042105
     19          6           0       -2.584818    1.103937   -0.055819
     20          6           0       -1.200461    1.359659   -0.067104
     21          6           0       -0.762880    2.693890   -0.131959
     22          6           0       -1.648266    3.744173   -0.183419
     23          6           0       -3.019251    3.491138   -0.171262
     24          6           0       -3.470587    2.194234   -0.108707
     25          1           0        0.292511    2.918698   -0.143764
     26          1           0       -1.279310    4.760139   -0.233735
     27          1           0       -3.727220    4.308476   -0.211444
     28          1           0       -4.536644    2.027227   -0.101920
     29          6           0       -2.161988   -1.344914    0.054017
     30          6           0       -3.075481   -0.274717    0.008637
     31          6           0       -4.451013   -0.563568    0.025349
     32          6           0       -4.918610   -1.855019    0.083274
     33          6           0       -4.013660   -2.914926    0.126434
     34          6           0       -2.663643   -2.656964    0.111713
     35          1           0       -5.173544    0.237281   -0.007143
     36          1           0       -5.983959   -2.044036    0.094976
     37          1           0       -4.368506   -3.936158    0.171698
     38          1           0       -1.985033   -3.495386    0.146236
     39          1           0        6.407619   -1.474913   -1.285051
     40          1           0        3.987202   -1.922156   -1.280744
 ---------------------------------------------------------------------

 SCF Done:  E(RM062X) =  -924.178360041     A.U. after    1 cycles

 The electronic state is 1-A.
 Alpha  occ. eigenvalues --  -10.55796 -10.55757 -10.55740 -10.55686 -10.55668
 Alpha  occ. eigenvalues --  -10.55641 -10.55439 -10.55378 -10.54485 -10.54428
 Alpha  occ. eigenvalues --  -10.54416 -10.54403 -10.54399 -10.54388 -10.54384
 Alpha  occ. eigenvalues --  -10.54367 -10.54355 -10.54343 -10.54330 -10.54314
 Alpha  occ. eigenvalues --  -10.54308 -10.54255 -10.54254 -10.54247  -1.00246
 Alpha  occ. eigenvalues --   -0.97751  -0.96083  -0.95624  -0.90232  -0.88191
 Alpha  occ. eigenvalues --   -0.87662  -0.85330  -0.84793  -0.82822  -0.81900
 Alpha  occ. eigenvalues --   -0.80861  -0.73473  -0.72146  -0.71575  -0.69401
 Alpha  occ. eigenvalues --   -0.68279  -0.66959  -0.66617  -0.63155  -0.62633
 Alpha  occ. eigenvalues --   -0.59751  -0.57440  -0.56475  -0.56092  -0.54384
 Alpha  occ. eigenvalues --   -0.53908  -0.52439  -0.51867  -0.50045  -0.49894
 Alpha  occ. eigenvalues --   -0.49435  -0.49266  -0.49047  -0.48780  -0.48681
 Alpha  occ. eigenvalues --   -0.48399  -0.45132  -0.44832  -0.43865  -0.43395
 Alpha  occ. eigenvalues --   -0.43087  -0.42476  -0.42266  -0.40559  -0.40300
 Alpha  occ. eigenvalues --   -0.38076  -0.37994  -0.36299  -0.34734  -0.34406
 Alpha  occ. eigenvalues --   -0.31273  -0.31206  -0.29208  -0.27194  -0.26355
 Alpha virt. eigenvalues --   -0.02430  -0.01658  -0.01223   0.01813   0.02258
 Alpha virt. eigenvalues --    0.05099   0.05704   0.07837   0.08104   0.08237
 Alpha virt. eigenvalues --    0.08620   0.09141   0.09895   0.10912   0.11361

 Mulliken charges:
               1
     1  C   -0.152444
     2  C   -0.215667
     3  C    0.101925
     4  C   -0.226502
     5  C   -0.151247
     6  C   -0.147820
     7  C    0.109462
     8  C   -0.224182
     9  H    0.171936
    10  H    0.143898
    11  H    0.143179
    12  C   -0.308322
    13  C   -0.224301
    14  H    0.128949
    15  H    0.164944
    16  H    0.197101
    17  C    0.117667
    18  C    0.104843
    19  C    0.101424
    20  C    0.047324
    21  C   -0.211747
    22  C   -0.147046
    23  C   -0.148139
    24  C   -0.218975
    25  H    0.123492
    26  H    0.142234
    27  H    0.141456
    28  H    0.129291
    29  C    0.094756
    30  C    0.094376
    31  C   -0.218128
    32  C   -0.148444
    33  C   -0.148522
    34  C   -0.221054
    35  H    0.128731
    36  H    0.141526
    37  H    0.141614
    38  H    0.131278
    39  H    0.143925
    40  H    0.167209
 Sum of Mulliken charges =  -0.00000

 Dipole moment (field-independent basis, Debye):
    X=              0.0422    Y=              0.0191    Z=             -0.0074  Tot=              0.0469
 Quadrupole moment (field-independent basis, Debye-Ang):
   XX=           -119.3183   YY=           -122.4781   ZZ=           -147.0296
   XY=              0.4818   XZ=             -0.7033   YZ=              2.6261

  Exact polarizability:     422.469       9.186     311.368      -3.148       7.701     139.907
 Approx polarizability:     478.156       8.081     428.436      -4.650      14.294     210.470

 Summary of Natural Population Analysis:

                                       Natural Population
                Natural  -----------------------------------------------
    Atom  No    Charge         Core      Valence    Rydberg      Total
 -----------------------------------------------------------------------
      C    1   -0.20363      1.99923     4.18600    0.01840     6.20363
      C    2   -0.19686      1.99914     4.17983    0.01788     6.19686
      C    3   -0.05023      1.99910     4.03110    0.02003     6.05023
      C    4   -0.19739      1.99914     4.18050    0.01775     6.19739
      C    5   -0.20373      1.99923     4.18614    0.01837     6.20373
      C    6   -0.21262      1.99922     4.19505    0.01835     6.21262
      C    7   -0.04284      1.99909     4.02474    0.01901     6.04284
      C    8   -0.18973      1.99914     4.17337    0.01722     6.18973
      H    9    0.21440      0.00000     0.78447    0.00113     0.78560
      H   10    0.21388      0.00000     0.78509    0.00103     0.78612
      H   11    0.21389      0.00000     0.78511    0.00100     0.78611
      C   12   -0.17002      1.99909     4.15625    0.01468     6.17002
      C   13   -0.17588      1.99918     4.16000    0.01671     6.17588
      H   14    0.20816      0.00000     0.79058    0.00127     0.79184
      H   15    0.21561      0.00000     0.78327    0.00112     0.78439
      H   16    0.20603      0.00000     0.79156    0.00241     0.79397
      C   17   -0.02688      1.99909     4.01003    0.01776     6.02688
      C   18   -0.03466      1.99908     4.01824    0.01734     6.03466
      C   19   -0.03292      1.99908     4.01590    0.01794     6.03292
      C   20   -0.03320      1.99908     4.01638    0.01773     6.03320
      C   21   -0.18272      1.99917     4.16682    0.01673     6.18272
      C   22   -0.20363      1.99922     4.18623    0.01819     6.20363
      C   23   -0.20364      1.99922     4.18615    0.01827     6.20364
      C   24   -0.18285      1.99917     4.16679    0.01688     6.18285
      H   25    0.20759      0.00000     0.79133    0.00107     0.79241
      H   26    0.21399      0.00000     0.78501    0.00100     0.78601
      H   27    0.21389      0.00000     0.78511    0.00100     0.78611
      H   28    0.20702      0.00000     0.79166    0.00132     0.79298
      C   29   -0.03327      1.99908     4.01628    0.01791     6.03327
      C   30   -0.03368      1.99908     4.01662    0.01798     6.03368
      C   31   -0.18272      1.99917     4.16666    0.01688     6.18272
      C   32   -0.20427      1.99922     4.18676    0.01829     6.20427
      C   33   -0.20388      1.99922     4.18640    0.01826     6.20388
      C   34   -0.18304      1.99917     4.16700    0.01687     6.18304
      H   35    0.20698      0.00000     0.79169    0.00133     0.79302
      H   36    0.21385      0.00000     0.78515    0.00100     0.78615
      H   37    0.21387      0.00000     0.78512    0.00100     0.78613
      H   38    0.20690      0.00000     0.79179    0.00131     0.79310
      H   39    0.21390      0.00000     0.78508    0.00102     0.78610
      H   40    0.21432      0.00000     0.78447    0.00121     0.78568
 =======================================================================
   * Total *    0.00000     47.97962   111.57575    0.44464   160.00000

                      1                      2                      3
                      A                      A                      A
 Frequencies --     25.2600                39.0898                58.2060
 Red. masses --      4.6479                 3.8085                 4.1053
 Frc consts  --      0.0017                 0.0034                 0.0082
 IR Inten    --      0.0308                 0.0314                 0.2978

                      4                      5                      6
                      A                      A                      A
 Frequencies --     69.0565                73.9539               118.8590
 Red. masses --      4.7406                 3.9390                 3.6513
 Frc consts  --      0.0133                 0.0127                 0.0304
 IR Inten    --      0.1607                 0.1430                 1.1803

                      7                      8                      9
                      A                      A                      A
 Frequencies --    131.3767               208.6515               216.3174
 Red. masses --      5.0507                 4.9767                 5.9819
 Frc consts  --      0.0514                 0.1277                 0.1649
 IR Inten    --      0.4460                 0.2805                 0.0948

                     10                     11                     12
                      A                      A                      A
 Frequencies --    254.1616               274.3375               285.7345
 Red. masses --      4.7138                 3.9967                 5.0604
 Frc consts  --      0.1794                 0.1772                 0.2434
 IR Inten    --      0.5609                 0.0239                 0.2087

                     13                     14                     15
                      A                      A                      A
 Frequencies --    336.3258               399.3443               413.4472
 Red. masses --      4.4366                 4.8237                 6.0181
 Frc consts  --      0.2957                 0.4532                 0.6061
 IR Inten    --      0.0466                 0.6404                 1.3259

                     16                     17                     18
                      A                      A                      A
 Frequencies --    417.7360               423.7389               434.0042
 Red. masses --      3.0156                 5.1774                 3.1474
 Frc consts  --      0.3100                 0.5477                 0.3493
 IR Inten    --      0.5375                 0.9535                 4.3497

                     19                     20                     21
                      A                      A                      A
 Frequencies --    438.1268               464.9491               481.2104
 Red. masses --      3.2115                 4.2220                 4.9615
 Frc consts  --      0.3632                 0.5377                 0.6769
 IR Inten    --      0.5725                 2.4384                 1.5169

                     22                     23                     24
                      A                      A                      A
 Frequencies --    524.8590               556.6098               572.3936
 Red. masses --      3.5468                 3.1349                 3.2950
 Frc consts  --      0.5757                 0.5722                 0.6361
 IR Inten    --      5.5743                 0.6450                 0.1394

                     25                     26                     27
                      A                      A                      A
 Frequencies --    584.4478               623.7674               629.4698
 Red. masses --      4.2548                 7.1038                 5.8265
 Frc consts  --      0.8563                 1.6285                 1.3602
 IR Inten    --      1.5383                 3.0482                 0.3546

                     28                     29                     30
                      A                      A                      A
 Frequencies --    633.6773               643.6911               648.4054
 Red. masses --      6.7024                 5.6100                 3.9782
 Frc consts  --      1.5857                 1.3695                 0.9854
 IR Inten    --      3.3828                 3.6812                 3.4613

                     31                     32                     33
                      A                      A                      A
 Frequencies --    712.5683               723.0368               728.1915
 Red. masses --      5.8911                 1.8172                 4.8353
 Frc consts  --      1.7624                 0.5597                 1.5107
 IR Inten    --      5.6913                34.4482                 5.2163

                     34                     35                     36
                      A                      A                      A
 Frequencies --    734.8944               744.2442               777.1436
 Red. masses --      2.0868                 2.0504                 1.6409
 Frc consts  --      0.6640                 0.6691                 0.5839
 IR Inten    --      1.3523                26.8338               126.1584

                     37                     38                     39
                      A                      A                      A
 Frequencies --    789.0858               793.0239               794.9408
 Red. masses --      2.2423                 3.0709                 2.8769
 Frc consts  --      0.8226                 1.1379                 1.0711
 IR Inten    --      6.6345                 1.3955                 7.6977

                     40                     41                     42
                      A                      A                      A
 Frequencies --    799.7323               849.7541               854.9977
 Red. masses --      1.6879                 1.7323                 5.0232
 Frc consts  --      0.6361                 0.7370                 2.1635
 IR Inten    --      3.7840                13.4712                 1.6464

                     43                     44                     45
                      A                      A                      A
 Frequencies --    876.9048               877.2279               893.9556
 Red. masses --      1.3535                 1.3246                 2.3402
 Frc consts  --      0.6132                 0.6006                 1.1019
 IR Inten    --      0.2749                 0.0573                 2.2747

                     46                     47                     48
                      A                      A                      A
 Frequencies --    920.2866               949.7384               954.7926
 Red. masses --      1.9872                 1.3686                 1.4513
 Frc consts  --      0.9916                 0.7274                 0.7795
 IR Inten    --      4.9803                 0.0668                 0.8456

                     49                     50                     51
                      A                      A                      A
 Frequencies --    965.8165               980.1580               992.7363
 Red. masses --      1.3841                 1.3433                 1.3017
 Frc consts  --      0.7607                 0.7603                 0.7558
 IR Inten    --      0.6504                 0.3935                 0.0453

                     52                     53                     54
                      A                      A                      A
 Frequencies --    997.7231               999.8477              1016.5476
 Red. masses --      1.2857                 1.3760                 1.3032
 Frc consts  --      0.7541                 0.8104                 0.7934
 IR Inten    --      0.0466                 0.3156                 0.0830

                     55                     56                     57
                      A                      A                      A
 Frequencies --   1017.8932              1022.8424              1031.4454
 Red. masses --      7.0279                 6.0468                 6.6809
 Frc consts  --      4.2902                 3.7273                 4.1877
 IR Inten    --      3.1783                 0.1969                 3.5052

                     58                     59                     60
                      A                      A                      A
 Frequencies --   1035.3376              1066.1149              1085.8676
 Red. masses --      6.8830                 2.2982                 1.7915
 Frc consts  --      4.3470                 1.5390                 1.2445
 IR Inten    --      1.6275                 3.7532                 5.5098

                     61                     62                     63
                      A                      A                      A
 Frequencies --   1090.1664              1100.4576              1114.9358
 Red. masses --      1.8223                 2.4404                 1.5331
 Frc consts  --      1.2760                 1.7413                 1.1228
 IR Inten    --      2.9913                 0.3759                 4.5201

                     64                     65                     66
                      A                      A                      A
 Frequencies --   1149.4695              1159.9012              1177.4804
 Red. masses --      2.2302                 1.8438                 1.1546
 Frc consts  --      1.7362                 1.4616                 0.9432
 IR Inten    --      0.3643                 0.7310                 0.0017

                     67                     68                     69
                      A                      A                      A
 Frequencies --   1183.6581              1190.1459              1206.2811
 Red. masses --      1.2296                 1.1192                 1.2812
 Frc consts  --      1.0150                 0.9340                 1.0984
 IR Inten    --      0.1518                 0.6608                 1.3604

                     70                     71                     72
                      A                      A                      A
 Frequencies --   1209.3615              1239.6105              1273.2690
 Red. masses --      1.1277                 2.8183                 1.8381
 Frc consts  --      0.9718                 2.5516                 1.7557
 IR Inten    --      1.2457                 0.5508                 0.9781

                     73                     74                     75
                      A                      A                      A
 Frequencies --   1279.9027              1303.6805              1308.1345
 Red. masses --      1.6114                 3.5699                 2.1035
 Frc consts  --      1.5552                 3.5747                 2.1208
 IR Inten    --      4.0933                 0.2924                 3.0207

                     76                     77                     78
                      A                      A                      A
 Frequencies --   1318.3352              1321.5136              1335.0515
 Red. masses --      1.9262                 5.0128                 3.8177
 Frc consts  --      1.9724                 5.1579                 4.0091
 IR Inten    --      0.0306                 0.5692                 0.8217

                     79                     80                     81
                      A                      A                      A
 Frequencies --   1354.7644              1370.4962              1377.5134
 Red. masses --      1.5085                 2.0223                 2.8499
 Frc consts  --      1.6312                 2.2380                 3.1862
 IR Inten    --      0.9554                 0.0129                 0.1443

                     82                     83                     84
                      A                      A                      A
 Frequencies --   1387.2894              1448.5243              1482.9481
 Red. masses --      3.9639                 3.1282                 2.3203
 Frc consts  --      4.4948                 3.8671                 3.0064
 IR Inten    --      0.0866                19.5545                36.8117

                     85                     86                     87
                      A                      A                      A
 Frequencies --   1489.0211              1500.9985              1508.7532
 Red. masses --      2.3512                 2.7771                 2.7590
 Frc consts  --      3.0714                 3.6864                 3.7003
 IR Inten    --      6.0380                 4.2107                 1.2386

                     88                     89                     90
                      A                      A                      A
 Frequencies --   1539.6690              1546.2181              1565.1928
 Red. masses --      2.4804                 2.7024                 3.0366
 Frc consts  --      3.4644                 3.8066                 4.3831
 IR Inten    --     32.4053                10.2772                 4.4224

                     91                     92                     93
                      A                      A                      A
 Frequencies --   1607.6947              1642.8734              1654.8639
 Red. masses --      4.1109                 6.3559                 7.3087
 Frc consts  --      6.2603                10.1073                11.7928
 IR Inten    --      1.0044                 2.0677                 0.2299

                     94                     95                     96
                      A                      A                      A
 Frequencies --   1655.6661              1677.5021              1684.2069
 Red. masses --      6.8369                 5.9950                 5.7452
 Frc consts  --     11.0422                 9.9395                 9.6016
 IR Inten    --      0.6511                12.4803                 1.0624

                     97                     98                     99
                      A                      A                      A
 Frequencies --   1684.9275              1689.3825              3197.8651
 Red. masses --      5.8273                 6.5767                 1.0856
 Frc consts  --      9.7472                11.0589                 6.5412
 IR Inten    --      1.9249                 8.2244                 6.4552

                    100                    101                    102
                      A                      A                      A
 Frequencies --   3201.3345              3208.0057              3209.2076
 Red. masses --      1.0880                 1.0865                 1.0870
 Frc consts  --      6.5698                 6.5882                 6.5957
 IR Inten    --      0.2068                 0.3417                 0.5459

                    103                    104                    105
                      A                      A                      A
 Frequencies --   3210.0132              3212.2478              3218.0440
 Red. masses --      1.0902                 1.0902                 1.0946
 Frc consts  --      6.6186                 6.6281                 6.6788
 IR Inten    --      7.1163                 0.4627                13.0808

                    106                    107                    108
                      A                      A                      A
 Frequencies --   3222.2453              3223.9036              3228.4820
 Red. masses --      1.0920                 1.0932                 1.0985
 Frc consts  --      6.6803                 6.6945                 6.7460
 IR Inten    --     18.2580                 8.4187                12.6579

                    109                    110                    111
                      A                      A                      A
 Frequencies --   3236.5603              3238.5548              3241.3960
 Red. masses --      1.0926                 1.0944                 1.0953
 Frc consts  --      6.7434                 6.7631                 6.7804
 IR Inten    --      0.3631                 0.0073                 0.4447

                    112                    113                    114
                      A                      A                      A
 Frequencies --   3264.8272              3265.6223              3268.3500
 Red. masses --      1.0881                 1.0879                 1.0887
 Frc consts  --      6.8332                 6.8353                 6.8520
 IR Inten    --     16.0423                10.3026                 7.7226

 - Thermochemistry -
 -------------------
 Temperature   298.150 Kelvin.  Pressure   1.00000 Atm.
 Atom     1 has atomic number  6 and mass  12.00000

 Molecular mass:   304.12520 amu.
 Principal axes and moments of inertia in atomic units:
                           1         2         3
     Eigenvalues --  3801.16347********************
           X            1.00000   0.00108  -0.00032
           Y           -0.00108   0.99999   0.00373
           Z            0.00032  -0.00373   0.99999
 This molecule is an asymmetric top.
 Rotational symmetry number  1.
 Warning -- assumption of classical behavior for rotation
           may cause significant error
 Rotational temperatures (Kelvin)      0.02279     0.00677     0.00530
 Rotational constants (GHZ):           0.47479     0.14112     0.11040
 Zero-point vibrational energy     852007.8 (Joules/Mol)
                                  203.63475 (Kcal/Mol)
 Warning -- explicit consideration of  25 degrees of freedom as
           vibrations may cause significant error
 Vibrational temperatures:     36.34    56.24    83.75    99.36   106.40
          (Kelvin)            171.01   189.02   300.20   311.23   365.68
                              394.71   411.11   483.90   574.57   594.86
                              601.03   609.67   624.44   630.37   668.96
                              692.35   755.16   800.84   823.55   840.89
                              897.46   905.67   911.72   926.13   932.91
                             1025.23  1040.29  1047.71  1057.35  1070.80
                             1118.14  1135.32  1140.98  1143.74  1150.64
                             1222.61  1230.15  1261.67  1262.14  1286.20
                             1324.09  1366.46  1373.73  1389.59  1410.23
                             1428.33  1435.50  1438.56  1462.59  1464.52
                             1471.64  1484.02  1489.62  1533.90  1562.32
                             1568.51  1583.31  1604.14  1653.83  1668.84
                             1694.13  1703.02  1712.35  1735.57  1740.00
                             1783.52  1831.95  1841.49  1875.71  1882.11
                             1896.79  1901.36  1920.84  1949.20  1971.84
                             1981.93  1996.00  2084.10  2133.63  2142.37
                             2159.60  2170.76  2215.24  2224.66  2251.96
                             2313.11  2363.73  2380.98  2382.13  2413.55
                             2423.20  2424.23  2430.64  4601.01  4606.01
                             4615.60  4617.33  4618.49  4621.71  4630.05
                             4636.09  4638.48  4645.07  4656.69  4659.56
                             4663.65  4697.36  4698.50  4702.43

 Zero-point correction=                           0.324513 (Hartree/Particle)
 Thermal correction to Energy=                    0.341522
 Thermal correction to Enthalpy=                  0.342466
 Thermal correction to Gibbs Free Energy=         0.278412
 Sum of electronic and zero-point Energies=           -923.853847
 Sum of electronic and thermal Energies=              -923.836838
 Sum of electronic and thermal Enthalpies=            -923.835894
 Sum of electronic and thermal Free Energies=         -923.899948

                     E (Thermal)             CV                S
                      KCal/Mol        Cal/Mol-Kelvin    Cal/Mol-Kelvin
 Total                  214.308             71.055            134.814
 Electronic               0.000              0.000              0.000
 Translational            0.889              2.981             43.033
 Rotational               0.889              2.981             35.029
 Vibrational            212.531             65.093             56.751
 Vibration     1          0.593              1.985              6.171
 Vibration     2          0.594              1.981              5.305
 Vibration     3          0.596              1.974              4.517
 Vibration     4          0.598              1.969              4.180
 Vibration     5          0.599              1.966              4.045
 Vibration     6          0.609              1.934              3.119
 Vibration     7          0.612              1.922              2.926
 Vibration     8          0.642              1.827              2.055
 Vibration     9          0.645              1.816              1.990
 Vibration    10          0.665              1.756              1.702
 Vibration    11          0.677              1.721              1.569
 Vibration    12          0.684              1.700              1.499
 Vibration    13          0.717              1.603              1.230
 Vibration    14          0.765              1.472              0.965
 Vibration    15          0.777              1.441              0.915
 Vibration    16          0.781              1.432              0.900
 Vibration    17          0.786              1.419              0.879
 Vibration    18          0.795              1.396              0.846
 Vibration    19          0.798              1.387              0.833
 Vibration    20          0.822              1.328              0.752
 Vibration    21          0.838              1.292              0.707
 Vibration    22          0.880              1.195              0.599
 Vibration    23          0.912              1.125              0.531
 Vibration    24          0.929              1.091              0.500
 Vibration    25          0.941              1.065              0.477

                           ! Non-Optimized Parameters !
 Normal termination of Gaussian 16 at Tue Nov 28 12:02:36 2023.
