 Gaussian 16, Revision C.01,
 Gaussian 16:  ES64L-G16RevC.01  3-Jul-2019

 -----------------------------------------
 # opt freq=noraman m062x def2tzvp pop=nbo
 -----------------------------------------

 ------------
 Structure697
 ------------
 Symbolic Z-matrix:
 Charge =  0 Multiplicity = 1

 SCF Done:  E(RM062X) =  -2088.69892415     A.U. after   17 cycles
 SCF Done:  E(RM062X) =  -2088.71291185     A.U. after   23 cycles
 SCF Done:  E(RM062X) =  -2088.71371115     A.U. after   13 cycles
 SCF Done:  E(RM062X) =  -2088.71389704     A.U. after   12 cycles
 SCF Done:  E(RM062X) =  -2088.71390627     A.U. after   12 cycles
 SCF Done:  E(RM062X) =  -2088.71390500     A.U. after   33 cycles
 SCF Done:  E(RM062X) =  -2088.71390830     A.U. after   47 cycles
 SCF Done:  E(RM062X) =  -2088.71390896     A.U. after    7 cycles
 SCF Done:  E(RM062X) =  -2088.71390901     A.U. after    6 cycles
 SCF Done:  E(RM062X) =  -2088.71390904     A.U. after    6 cycles
 SCF Done:  E(RM062X) =  -2088.71390906     A.U. after    6 cycles
 SCF Done:  E(RM062X) =  -2088.71390907     A.U. after    5 cycles
 Optimization completed.
    -- Stationary point found.
 Normal termination of Gaussian 16 at Tue Nov 14 13:36:33 2023.

 --------------------------------------------------------------------
 #N Geom=AllCheck Guess=TCheck SCRF=Check GenChk RM062X/def2TZVP Freq
 --------------------------------------------------------------------

 Structure from the checkpoint file:  "ph_35prf_37_1_m062x.chk"
 ------------
 Structure697
 ------------
 Charge =  0 Multiplicity = 1

                         Standard orientation:
 ---------------------------------------------------------------------
 Center     Atomic      Atomic             Coordinates (Angstroms)
 Number     Number       Type             X           Y           Z
 ---------------------------------------------------------------------
      1          6           0        0.960907    4.435756   -0.581368
      2          6           0        0.960522    5.792188   -0.295799
      3          6           0        0.017801    6.321057    0.574793
      4          6           0       -0.925670    5.486087    1.157318
      5          6           0       -0.927537    4.130096    0.869758
      6          6           0        0.016342    3.589030   -0.002451
      7          1           0        0.018445    7.379647    0.798638
      8          1           0       -1.650931    3.479764    1.346232
      9          1           0        1.693862    6.438590   -0.759852
     10          1           0        1.684457    4.033247   -1.279582
     11          6           0        0.013065   -0.606609   -0.889373
     12          6           0       -1.178174    0.090482   -0.759167
     13          6           0       -1.181808    1.446386   -0.468569
     14          6           0        0.015560    2.140315   -0.307333
     15          6           0        1.211856    1.438327   -0.440614
     16          6           0        1.205832    0.083261   -0.734386
     17          1           0       -2.123503    1.974740   -0.395602
     18          1           0        2.154765    1.950788   -0.300645
     19          1           0       -1.658293    5.890140    1.843585
     20          1           0        0.012382   -1.663099   -1.119464
     21          6           0       -2.484824   -0.640348   -0.912963
     22          9           0       -3.439416    0.178316   -1.401593
     23          9           0       -2.357184   -1.680973   -1.761381
     24          6           0        2.509899   -0.659531   -0.848102
     25          9           0        2.401748   -1.687865   -1.714263
     26          9           0        3.489435    0.155280   -1.292738
     27          6           0       -2.995978   -1.198887    0.437605
     28          9           0       -2.061651   -2.020577    0.937594
     29          9           0       -3.166738   -0.169630    1.282374
     30          6           0        2.967392   -1.240462    0.512095
     31          9           0        3.112800   -0.225455    1.377287
     32          9           0        2.009953   -2.063749    0.964363
     33          6           0       -4.327509   -1.986272    0.397676
     34          9           0       -4.623424   -2.378515    1.630873
     35          9           0       -5.314663   -1.225779   -0.051372
     36          9           0       -4.221428   -3.058267   -0.372040
     37          6           0        4.294426   -2.036469    0.509155
     38          9           0        4.541622   -2.450377    1.745885
     39          9           0        4.210420   -3.095380   -0.281391
     40          9           0        5.302547   -1.275948    0.109407
 ---------------------------------------------------------------------

 SCF Done:  E(RM062X) =  -2088.71390907     A.U. after    1 cycles

 The electronic state is 1-A.
 Alpha  occ. eigenvalues --  -25.30793 -25.30777 -25.30768 -25.30749 -25.30728
 Alpha  occ. eigenvalues --  -25.30700 -25.30671 -25.30647 -25.30607 -25.30560
 Alpha  occ. eigenvalues --  -25.29507 -25.29488 -25.29486 -25.29473 -10.82876
 Alpha  occ. eigenvalues --  -10.82828 -10.76621 -10.76567 -10.75821 -10.75809
 Alpha  occ. eigenvalues --  -10.59450 -10.59447 -10.58840 -10.58712 -10.58358
 Alpha  occ. eigenvalues --  -10.58348 -10.57299 -10.56059 -10.56050 -10.55849
 Alpha  occ. eigenvalues --  -10.55816 -10.55722  -1.50492  -1.50445  -1.46440
 Alpha  occ. eigenvalues --   -1.46386  -1.44584  -1.44565  -1.41142  -1.41093
 Alpha  occ. eigenvalues --   -1.40518  -1.40474  -1.39881  -1.39822  -1.38538
 Alpha  occ. eigenvalues --   -1.38527  -1.02348  -0.98538  -0.95373  -0.93993
 Alpha  occ. eigenvalues --   -0.91608  -0.91500  -0.86401  -0.86141  -0.84351
 Alpha  occ. eigenvalues --   -0.84195  -0.79869  -0.79744  -0.75167  -0.75063
 Alpha  occ. eigenvalues --   -0.74371  -0.74263  -0.73523  -0.73283  -0.73221
 Alpha  occ. eigenvalues --   -0.72519  -0.70719  -0.70593  -0.70496  -0.70436
 Alpha  occ. eigenvalues --   -0.69816  -0.69777  -0.67247  -0.67149  -0.65916
 Alpha  occ. eigenvalues --   -0.62886  -0.61541  -0.61194  -0.61091  -0.60553
 Alpha  occ. eigenvalues --   -0.60525  -0.60494  -0.60467  -0.59857  -0.59289
 Alpha  occ. eigenvalues --   -0.59248  -0.58981  -0.58558  -0.57983  -0.57577
 Alpha  occ. eigenvalues --   -0.57107  -0.56080  -0.55942  -0.55863  -0.55506
 Alpha  occ. eigenvalues --   -0.55190  -0.54893  -0.54829  -0.54124  -0.53961
 Alpha  occ. eigenvalues --   -0.53783  -0.53736  -0.53409  -0.52908  -0.52467
 Alpha  occ. eigenvalues --   -0.51384  -0.50819  -0.50672  -0.50179  -0.48455
 Alpha  occ. eigenvalues --   -0.47363  -0.46701  -0.45780  -0.44171  -0.42744
 Alpha  occ. eigenvalues --   -0.41874  -0.41653  -0.36660  -0.35425  -0.32786
 Alpha  occ. eigenvalues --   -0.30755
 Alpha virt. eigenvalues --   -0.03638  -0.03217   0.00322   0.02145   0.06616
 Alpha virt. eigenvalues --    0.08002   0.08075   0.08387   0.09355   0.09690
 Alpha virt. eigenvalues --    0.10789   0.10986   0.11456   0.11681   0.12629

 Mulliken charges:
               1
     1  C   -0.213968
     2  C   -0.152820
     3  C   -0.141365
     4  C   -0.153418
     5  C   -0.211126
     6  C    0.110087
     7  H    0.148751
     8  H    0.172733
     9  H    0.150029
    10  H    0.174170
    11  C   -0.180952
    12  C   -0.004239
    13  C   -0.232425
    14  C    0.136338
    15  C   -0.220301
    16  C   -0.003578
    17  H    0.210032
    18  H    0.206982
    19  H    0.150308
    20  H    0.205358
    21  C    0.257350
    22  F   -0.171416
    23  F   -0.170713
    24  C    0.257542
    25  F   -0.170643
    26  F   -0.172953
    27  C    0.290808
    28  F   -0.158981
    29  F   -0.163992
    30  C    0.290811
    31  F   -0.161052
    32  F   -0.159662
    33  C    0.490612
    34  F   -0.151661
    35  F   -0.149387
    36  F   -0.148198
    37  C    0.490411
    38  F   -0.151492
    39  F   -0.148489
    40  F   -0.149493
 Sum of Mulliken charges =  -0.00000

 Dipole moment (field-independent basis, Debye):
    X=              0.0133    Y=              3.6347    Z=              0.1622  Tot=              3.6383
 Quadrupole moment (field-independent basis, Debye-Ang):
   XX=           -183.7144   YY=           -160.3949   ZZ=           -179.1854
   XY=              0.9464   XZ=             -3.9206   YZ=              1.9483

  Exact polarizability:     219.080       3.344     269.797     -14.540      17.381     150.891
 Approx polarizability:     267.469       4.906     308.145     -22.901      22.685     206.742

 Summary of Natural Population Analysis:

                                       Natural Population
                Natural  -----------------------------------------------
    Atom  No    Charge         Core      Valence    Rydberg      Total
 -----------------------------------------------------------------------
      C    1   -0.19314      1.99914     4.17580    0.01819     6.19314
      C    2   -0.20061      1.99923     4.18286    0.01852     6.20061
      C    3   -0.20330      1.99922     4.18576    0.01831     6.20330
      C    4   -0.20042      1.99923     4.18268    0.01851     6.20042
      C    5   -0.19286      1.99914     4.17551    0.01820     6.19286
      C    6   -0.06347      1.99909     4.04420    0.02017     6.06347
      H    7    0.21722      0.00000     0.78176    0.00102     0.78278
      H    8    0.21655      0.00000     0.78222    0.00123     0.78345
      H    9    0.21776      0.00000     0.78120    0.00104     0.78224
      H   10    0.21607      0.00000     0.78272    0.00122     0.78393
      C   11   -0.15292      1.99903     4.13639    0.01750     6.15292
      C   12   -0.12058      1.99904     4.09943    0.02211     6.12058
      C   13   -0.14816      1.99905     4.13154    0.01757     6.14816
      C   14   -0.03411      1.99911     4.01473    0.02026     6.03411
      C   15   -0.14801      1.99905     4.13136    0.01760     6.14801
      C   16   -0.12033      1.99904     4.09920    0.02209     6.12033
      H   17    0.23780      0.00000     0.76089    0.00130     0.76220
      H   18    0.23772      0.00000     0.76099    0.00129     0.76228
      H   19    0.21789      0.00000     0.78107    0.00104     0.78211
      H   20    0.25053      0.00000     0.74822    0.00124     0.74947
      C   21    0.63419      1.99891     3.32366    0.04323     5.36581
      F   22   -0.31318      1.99993     7.30682    0.00643     9.31318
      F   23   -0.31248      1.99993     7.30609    0.00646     9.31248
      C   24    0.63406      1.99891     3.32385    0.04317     5.36594
      F   25   -0.31252      1.99993     7.30614    0.00645     9.31252
      F   26   -0.31395      1.99993     7.30761    0.00641     9.31395
      C   27    0.54861      1.99911     3.40334    0.04894     5.45139
      F   28   -0.30000      1.99992     7.29310    0.00698     9.30000
      F   29   -0.30312      1.99992     7.29627    0.00693     9.30312
      C   30    0.54850      1.99911     3.40337    0.04902     5.45150
      F   31   -0.30140      1.99992     7.29452    0.00695     9.30140
      F   32   -0.30045      1.99992     7.29355    0.00698     9.30045
      C   33    0.92591      1.99947     3.02091    0.05371     5.07409
      F   34   -0.30046      1.99991     7.29107    0.00948     9.30046
      F   35   -0.29867      1.99991     7.28918    0.00958     9.29867
      F   36   -0.29762      1.99991     7.28811    0.00960     9.29762
      C   37    0.92588      1.99947     3.02095    0.05370     5.07412
      F   38   -0.30030      1.99991     7.29091    0.00948     9.30030
      F   39   -0.29791      1.99991     7.28841    0.00959     9.29791
      F   40   -0.29875      1.99991     7.28926    0.00957     9.29875
 =======================================================================
   * Total *    0.00000     63.98324   177.37566    0.64110   242.00000

                      1                      2                      3
                      A                      A                      A
 Frequencies --     10.8548                11.7860                15.3177
 Red. masses --     17.9973                18.0969                14.4350
 Frc consts  --      0.0012                 0.0015                 0.0020
 IR Inten    --      0.0022                 0.0117                 0.0512

                      4                      5                      6
                      A                      A                      A
 Frequencies --     20.7935                31.8860                47.9592
 Red. masses --     12.8614                 9.9601                 3.9731
 Frc consts  --      0.0033                 0.0060                 0.0054
 IR Inten    --      0.0349                 0.0220                 0.0140

                      7                      8                      9
                      A                      A                      A
 Frequencies --     61.9359                69.4578                73.9016
 Red. masses --      8.2871                18.3332                13.7836
 Frc consts  --      0.0187                 0.0521                 0.0444
 IR Inten    --      0.0917                 0.0044                 0.0585

                     10                     11                     12
                      A                      A                      A
 Frequencies --     81.5735               102.8594               109.2118
 Red. masses --     10.7897                 5.5952                15.1521
 Frc consts  --      0.0423                 0.0349                 0.1065
 IR Inten    --      0.1121                 0.2075                 0.7949

                     13                     14                     15
                      A                      A                      A
 Frequencies --    153.4407               169.9928               200.1076
 Red. masses --     14.2536                10.8655                 7.9727
 Frc consts  --      0.1977                 0.1850                 0.1881
 IR Inten    --      0.5102                 0.0394                 0.7880

                     16                     17                     18
                      A                      A                      A
 Frequencies --    209.6958               227.4158               229.0496
 Red. masses --      8.1227                16.4782                10.0014
 Frc consts  --      0.2104                 0.5021                 0.3092
 IR Inten    --      1.9677                 2.6856                 2.2089

                     19                     20                     21
                      A                      A                      A
 Frequencies --    235.5750               236.6131               253.1281
 Red. masses --     15.8595                17.3500                 5.9430
 Frc consts  --      0.5186                 0.5723                 0.2244
 IR Inten    --      0.0844                 0.0506                 2.0556

                     22                     23                     24
                      A                      A                      A
 Frequencies --    275.8610               281.6222               292.8375
 Red. masses --      7.0424                 7.7768                17.5196
 Frc consts  --      0.3158                 0.3634                 0.8852
 IR Inten    --      0.3026                 1.0630                 3.7048

                     25                     26                     27
                      A                      A                      A
 Frequencies --    294.0837               306.2658               319.6890
 Red. masses --     13.5815                 7.3007                11.6068
 Frc consts  --      0.6921                 0.4035                 0.6989
 IR Inten    --      1.0605                 0.5907                 0.4020

                     28                     29                     30
                      A                      A                      A
 Frequencies --    342.5199               345.4978               371.6168
 Red. masses --     15.9386                17.3816                12.7972
 Frc consts  --      1.1017                 1.2225                 1.0412
 IR Inten    --      0.0940                 0.1318                 2.3324

                     31                     32                     33
                      A                      A                      A
 Frequencies --    372.7494               382.1887               383.8343
 Red. masses --     12.5581                17.4489                16.4715
 Frc consts  --      1.0280                 1.5017                 1.4298
 IR Inten    --      1.9883                 0.1777                 0.2933

                     34                     35                     36
                      A                      A                      A
 Frequencies --    409.4692               416.9498               450.5360
 Red. masses --      5.8124                 2.9403                12.1612
 Frc consts  --      0.5742                 0.3012                 1.4544
 IR Inten    --      3.0527                 0.3882                 0.2078

                     37                     38                     39
                      A                      A                      A
 Frequencies --    475.2713               521.3434               529.3005
 Red. masses --      7.0551                 5.8102                11.0299
 Frc consts  --      0.9389                 0.9304                 1.8206
 IR Inten    --      3.0076                12.0594                 4.1082

                     40                     41                     42
                      A                      A                      A
 Frequencies --    542.8179               546.9334               565.4904
 Red. masses --     15.1819                15.8030                11.0014
 Frc consts  --      2.6356                 2.7852                 2.0727
 IR Inten    --     11.3294                 4.0409                 0.3975

                     43                     44                     45
                      A                      A                      A
 Frequencies --    588.0887               590.7079               595.4929
 Red. masses --     11.6276                 7.7415                10.5267
 Frc consts  --      2.3693                 1.5916                 2.1994
 IR Inten    --      4.7461                12.5024                35.0481

                     46                     47                     48
                      A                      A                      A
 Frequencies --    615.1931               621.7971               631.5953
 Red. masses --      5.6698                17.5422                10.8120
 Frc consts  --      1.2643                 3.9961                 2.5412
 IR Inten    --     17.9803                 0.1909                 0.8018

                     49                     50                     51
                      A                      A                      A
 Frequencies --    634.2645               646.6233               698.4387
 Red. masses --      6.3950                 7.5918                14.3408
 Frc consts  --      1.5158                 1.8702                 4.1217
 IR Inten    --      3.5469                 6.5493                 2.5224

                     52                     53                     54
                      A                      A                      A
 Frequencies --    700.3853               723.0328               730.8431
 Red. masses --      7.2768                 1.6763                 2.9758
 Frc consts  --      2.1031                 0.5163                 0.9365
 IR Inten    --      6.5899                34.7525                 6.1788

                     55                     56                     57
                      A                      A                      A
 Frequencies --    753.1745               761.0435               792.2323
 Red. masses --     11.2864                 6.8159                 2.2268
 Frc consts  --      3.7722                 2.3259                 0.8235
 IR Inten    --    115.9699                88.9033                31.6951

                     58                     59                     60
                      A                      A                      A
 Frequencies --    807.0762               821.7832               876.9096
 Red. masses --      7.3218                 7.0597                 1.2472
 Frc consts  --      2.8099                 2.8090                 0.5651
 IR Inten    --      6.7660                22.3203                 0.3567

                     61                     62                     63
                      A                      A                      A
 Frequencies --    905.0560               947.3903               957.6022
 Red. masses --      3.4527                 1.4203                 1.8828
 Frc consts  --      1.6663                 0.7511                 1.0172
 IR Inten    --     88.5655                 1.3294                28.2314

                     64                     65                     66
                      A                      A                      A
 Frequencies --    962.6534               972.4223               989.5232
 Red. masses --      2.0863                 1.6970                 3.4666
 Frc consts  --      1.1391                 0.9454                 1.9999
 IR Inten    --     22.4360                 3.7364                95.9930

                     67                     68                     69
                      A                      A                      A
 Frequencies --   1002.8726              1020.4418              1022.9978
 Red. masses --      1.3887                 6.1208                 1.3123
 Frc consts  --      0.8229                 3.7552                 0.8092
 IR Inten    --      0.5526                 2.6714                 0.3213

                     70                     71                     72
                      A                      A                      A
 Frequencies --   1025.1755              1063.2461              1103.8768
 Red. masses --      5.5152                 2.5319                 3.2562
 Frc consts  --      3.4152                 1.6864                 2.3378
 IR Inten    --      0.9526                 7.8401                16.2058

                     73                     74                     75
                      A                      A                      A
 Frequencies --   1117.0908              1138.3934              1142.6137
 Red. masses --      1.5187                 2.8603                 2.2325
 Frc consts  --      1.1166                 2.1839                 1.7173
 IR Inten    --      4.6411                56.4118                69.7066

                     76                     77                     78
                      A                      A                      A
 Frequencies --   1171.9862              1176.9677              1179.5910
 Red. masses --      7.0924                10.0931                 1.1534
 Frc consts  --      5.7397                 8.2377                 0.9455
 IR Inten    --    133.2315               146.8106                 0.4220

                     79                     80                     81
                      A                      A                      A
 Frequencies --   1210.0581              1215.0900              1222.8663
 Red. masses --      1.1433                 8.8724                 6.6222
 Frc consts  --      0.9863                 7.7180                 5.8346
 IR Inten    --      0.0070                19.6770                34.6395

                     82                     83                     84
                      A                      A                      A
 Frequencies --   1249.5339              1254.8863              1256.1165
 Red. masses --     11.9418                12.8049                 5.7631
 Frc consts  --     10.9854                11.8805                 5.3576
 IR Inten    --     57.7323               131.9218                 3.8323

                     85                     86                     87
                      A                      A                      A
 Frequencies --   1263.9552              1288.3578              1288.7364
 Red. masses --      4.8902                 3.2802                 2.8625
 Frc consts  --      4.6030                 3.2080                 2.8011
 IR Inten    --    178.1250               197.7444               109.4307

                     88                     89                     90
                      A                      A                      A
 Frequencies --   1294.5086              1302.2500              1303.8314
 Red. masses --      5.6424                 8.4126                12.9520
 Frc consts  --      5.5709                 8.4057                12.9727
 IR Inten    --     56.2464               167.2431               526.0084

                     91                     92                     93
                      A                      A                      A
 Frequencies --   1316.5259              1331.9376              1333.0035
 Red. masses --      4.2342                12.2119                12.0348
 Frc consts  --      4.3240                12.7644                12.5994
 IR Inten    --      1.5590                27.4961                71.4868

                     94                     95                     96
                      A                      A                      A
 Frequencies --   1344.3399              1362.0852              1381.3759
 Red. masses --      1.6740                 1.6589                 8.7571
 Frc consts  --      1.7825                 1.8133                 9.8455
 IR Inten    --      0.6482                 2.1168                61.2246

                     97                     98                     99
                      A                      A                      A
 Frequencies --   1401.7124              1418.0043              1474.0135
 Red. masses --     11.3830                 9.7664                 2.8255
 Frc consts  --     13.1772                11.5702                 3.6170
 IR Inten    --    223.7512               159.5191                 2.7659

                    100                    101                    102
                      A                      A                      A
 Frequencies --   1507.4759              1511.6065              1550.0599
 Red. masses --      3.4541                 3.2074                 2.7508
 Frc consts  --      4.6247                 4.3180                 3.8940
 IR Inten    --     32.4765                 3.2939                 0.4661

                    103                    104                    105
                      A                      A                      A
 Frequencies --   1652.9592              1677.8826              1681.8889
 Red. masses --      5.7657                 6.0060                 6.2814
 Frc consts  --      9.2816                 9.9623                10.4690
 IR Inten    --      1.1129                 1.8660                 2.1858

                    106                    107                    108
                      A                      A                      A
 Frequencies --   1683.3095              3200.8984              3203.8968
 Red. masses --      6.5281                 1.0869                 1.0882
 Frc consts  --     10.8984                 6.5611                 6.5815
 IR Inten    --      8.6390                 3.6714                 0.4777

                    109                    110                    111
                      A                      A                      A
 Frequencies --   3213.2345              3222.0688              3223.8909
 Red. masses --      1.0908                 1.0942                 1.0914
 Frc consts  --      6.6354                 6.6932                 6.6836
 IR Inten    --      2.6719                 9.3821                 0.3169

                    112                    113                    114
                      A                      A                      A
 Frequencies --   3225.3440              3231.7585              3239.8341
 Red. masses --      1.0913                 1.0986                 1.0921
 Frc consts  --      6.6886                 6.7604                 6.7537
 IR Inten    --      0.1093                 7.7264                 4.7117

 - Thermochemistry -
 -------------------
 Temperature   298.150 Kelvin.  Pressure   1.00000 Atm.
 Atom     1 has atomic number  6 and mass  12.00000

 Molecular mass:   490.04025 amu.
 Principal axes and moments of inertia in atomic units:
                           1         2         3
     Eigenvalues --  ******************************
           X            0.99999   0.00210  -0.00254
           Y           -0.00209   0.99998   0.00634
           Z            0.00255  -0.00633   0.99998
 This molecule is an asymmetric top.
 Rotational symmetry number  1.
 Warning -- assumption of classical behavior for rotation
           may cause significant error
 Rotational temperatures (Kelvin)      0.00662     0.00467     0.00309
 Rotational constants (GHZ):           0.13784     0.09740     0.06434
 Zero-point vibrational energy     640045.9 (Joules/Mol)
                                  152.97463 (Kcal/Mol)
 Warning -- explicit consideration of  46 degrees of freedom as
           vibrations may cause significant error
 Vibrational temperatures:     15.62    16.96    22.04    29.92    45.88
          (Kelvin)             69.00    89.11    99.93   106.33   117.37
                              147.99   157.13   220.77   244.58   287.91
                              301.71   327.20   329.55   338.94   340.43
                              364.19   396.90   405.19   421.33   423.12
                              440.65   459.96   492.81   497.09   534.67
                              536.30   549.88   552.25   589.13   599.90
                              648.22   683.81   750.10   761.55   780.99
                              786.92   813.61   846.13   849.90   856.78
                              885.13   894.63   908.72   912.57   930.35
                             1004.90  1007.70  1040.28  1051.52  1083.65
                             1094.97  1139.85  1161.20  1182.36  1261.68
                             1302.17  1363.08  1377.78  1385.04  1399.10
                             1423.70  1442.91  1468.19  1471.87  1475.00
                             1529.77  1588.23  1607.24  1637.89  1643.97
                             1686.23  1693.39  1697.17  1741.00  1748.24
                             1759.43  1797.80  1805.50  1807.27  1818.55
                             1853.66  1854.20  1862.51  1873.65  1875.92
                             1894.19  1916.36  1917.89  1934.21  1959.74
                             1987.49  2016.75  2040.19  2120.78  2168.92
                             2174.86  2230.19  2378.24  2414.10  2419.86
                             2421.91  4605.38  4609.69  4623.13  4635.84
                             4638.46  4640.55  4649.78  4661.40

 Zero-point correction=                           0.243781 (Hartree/Particle)
 Thermal correction to Energy=                    0.271112
 Thermal correction to Enthalpy=                  0.272056
 Thermal correction to Gibbs Free Energy=         0.180661
 Sum of electronic and zero-point Energies=          -2088.470128
 Sum of electronic and thermal Energies=             -2088.442797
 Sum of electronic and thermal Enthalpies=           -2088.441853
 Sum of electronic and thermal Free Energies=        -2088.533248

                     E (Thermal)             CV                S
                      KCal/Mol        Cal/Mol-Kelvin    Cal/Mol-Kelvin
 Total                  170.125            101.254            192.357
 Electronic               0.000              0.000              0.000
 Translational            0.889              2.981             44.455
 Rotational               0.889              2.981             37.163
 Vibrational            168.348             95.293            110.739
 Vibration     1          0.593              1.987              7.848
 Vibration     2          0.593              1.987              7.685
 Vibration     3          0.593              1.986              7.164
 Vibration     4          0.593              1.986              6.557
 Vibration     5          0.594              1.983              5.708
 Vibration     6          0.595              1.978              4.900
 Vibration     7          0.597              1.972              4.395
 Vibration     8          0.598              1.969              4.169
 Vibration     9          0.599              1.966              4.047
 Vibration    10          0.600              1.962              3.853
 Vibration    11          0.605              1.947              3.399
 Vibration    12          0.606              1.942              3.283
 Vibration    13          0.619              1.899              2.629
 Vibration    14          0.625              1.879              2.436
 Vibration    15          0.638              1.840              2.132
 Vibration    16          0.642              1.826              2.046
 Vibration    17          0.651              1.799              1.899
 Vibration    18          0.652              1.797              1.886
 Vibration    19          0.655              1.786              1.836
 Vibration    20          0.655              1.785              1.828
 Vibration    21          0.664              1.758              1.709
 Vibration    22          0.678              1.718              1.559
 Vibration    23          0.681              1.708              1.524
 Vibration    24          0.688              1.687              1.458
 Vibration    25          0.689              1.685              1.450
 Vibration    26          0.697              1.662              1.382
 Vibration    27          0.706              1.636              1.312
 Vibration    28          0.722              1.590              1.200
 Vibration    29          0.724              1.584              1.187
 Vibration    30          0.743              1.530              1.073
 Vibration    31          0.744              1.528              1.068
 Vibration    32          0.752              1.508              1.030
 Vibration    33          0.753              1.505              1.024
 Vibration    34          0.774              1.450              0.928
 Vibration    35          0.780              1.433              0.902
 Vibration    36          0.809              1.360              0.794
 Vibration    37          0.832              1.305              0.723
 Vibration    38          0.876              1.203              0.607
 Vibration    39          0.884              1.185              0.589
 Vibration    40          0.898              1.155              0.559
 Vibration    41          0.902              1.146              0.551
 Vibration    42          0.921              1.106              0.513
 Vibration    43          0.945              1.057              0.471
 Vibration    44          0.948              1.052              0.466
 Vibration    45          0.953              1.041              0.457
 Vibration    46          0.975              1.000              0.424

 Optimization completed.
    -- Stationary point found.
 Normal termination of Gaussian 16 at Tue Nov 14 18:45:14 2023.
