 Gaussian 16, Revision C.01,
 Gaussian 16:  ES64L-G16RevC.01  3-Jul-2019

 -----------------------------------------
 # opt freq=noraman m062x def2tzvp pop=nbo
 -----------------------------------------

 ------------
 Structure697
 ------------
 Symbolic Z-matrix:
 Charge =  0 Multiplicity = 1

 SCF Done:  E(RM062X) =  -1031.40174830     A.U. after   14 cycles
 SCF Done:  E(RM062X) =  -1031.40447338     A.U. after   12 cycles
 SCF Done:  E(RM062X) =  -1031.40467938     A.U. after   11 cycles
 SCF Done:  E(RM062X) =  -1031.40470741     A.U. after   10 cycles
 SCF Done:  E(RM062X) =  -1031.40470884     A.U. after    7 cycles
 SCF Done:  E(RM062X) =  -1031.40470899     A.U. after    7 cycles
 Optimization completed.
    -- Stationary point found.
 Normal termination of Gaussian 16 at Wed Nov  1 00:09:56 2023.

 --------------------------------------------------------------------
 #N Geom=AllCheck Guess=TCheck SCRF=Check GenChk RM062X/def2TZVP Freq
 --------------------------------------------------------------------

 Structure from the checkpoint file:  "ph_3ph4cf3_8_1_m062x.chk"
 ------------
 Structure697
 ------------
 Charge =  0 Multiplicity = 1

                         Standard orientation:
 ---------------------------------------------------------------------
 Center     Atomic      Atomic             Coordinates (Angstroms)
 Number     Number       Type             X           Y           Z
 ---------------------------------------------------------------------
      1          6           0       -3.883757   -0.232266    0.021877
      2          6           0       -3.818927   -1.497923   -0.560805
      3          6           0       -4.865419   -2.396771   -0.422955
      4          6           0       -5.995682   -2.045645    0.302151
      5          6           0       -6.071635   -0.789217    0.887069
      6          6           0       -5.025214    0.109494    0.747121
      7          1           0       -4.801429   -3.371298   -0.889489
      8          1           0       -6.945781   -0.510199    1.461068
      9          1           0       -2.950161   -1.769271   -1.147845
     10          1           0       -5.080543    1.079292    1.225944
     11          6           0       -0.650508    2.534486   -0.387546
     12          6           0       -1.961154    2.980465   -0.452037
     13          6           0       -3.012668    2.087008   -0.321470
     14          6           0       -2.765776    0.728194   -0.126757
     15          6           0       -1.443855    0.292470   -0.067729
     16          6           0       -0.378405    1.180698   -0.194692
     17          1           0       -4.033982    2.438586   -0.395406
     18          1           0       -1.241107   -0.753263    0.130771
     19          1           0       -6.812378   -2.747131    0.410825
     20          1           0       -2.164548    4.030057   -0.620275
     21          1           0        0.166642    3.233440   -0.513719
     22          6           0        3.649863   -0.216250    0.020992
     23          6           0        2.692336   -0.969119   -0.643357
     24          6           0        1.386792   -0.513309   -0.710402
     25          6           0        1.018323    0.694533   -0.117309
     26          6           0        1.995404    1.436477    0.546910
     27          6           0        3.302882    0.986777    0.618629
     28          1           0        2.971726   -1.900031   -1.118526
     29          1           0        0.646763   -1.087743   -1.252690
     30          1           0        1.721963    2.365434    1.030481
     31          1           0        4.053152    1.567575    1.138428
     32          6           0        5.055676   -0.729944    0.136577
     33          9           0        5.947464    0.263317    0.227936
     34          9           0        5.216212   -1.493431    1.228147
     35          9           0        5.402992   -1.482820   -0.913547
 ---------------------------------------------------------------------

 SCF Done:  E(RM062X) =  -1031.40470899     A.U. after    1 cycles

 The electronic state is 1-A.
 Alpha  occ. eigenvalues --  -25.27741 -25.27740 -25.27300 -10.79430 -10.57310
 Alpha  occ. eigenvalues --  -10.57135 -10.56476 -10.56468 -10.56407 -10.56200
 Alpha  occ. eigenvalues --  -10.55981 -10.55964 -10.55882 -10.55245 -10.55216
 Alpha  occ. eigenvalues --  -10.55163 -10.55056 -10.54845 -10.54824 -10.54767
 Alpha  occ. eigenvalues --  -10.54741 -10.54648  -1.46580  -1.37393  -1.36937
 Alpha  occ. eigenvalues --   -1.00037  -0.98503  -0.96469  -0.91293  -0.88389
 Alpha  occ. eigenvalues --   -0.86755  -0.85706  -0.84977  -0.82685  -0.80214
 Alpha  occ. eigenvalues --   -0.73767  -0.73116  -0.71288  -0.70442  -0.69027
 Alpha  occ. eigenvalues --   -0.68568  -0.67798  -0.66633  -0.65836  -0.62158
 Alpha  occ. eigenvalues --   -0.58598  -0.57631  -0.57581  -0.56687  -0.55615
 Alpha  occ. eigenvalues --   -0.54499  -0.53916  -0.53612  -0.53103  -0.52649
 Alpha  occ. eigenvalues --   -0.51416  -0.51192  -0.51118  -0.50474  -0.49658
 Alpha  occ. eigenvalues --   -0.49472  -0.48656  -0.46996  -0.45471  -0.44214
 Alpha  occ. eigenvalues --   -0.44124  -0.43636  -0.42305  -0.41582  -0.40168
 Alpha  occ. eigenvalues --   -0.40044  -0.35534  -0.33928  -0.33030  -0.31677
 Alpha  occ. eigenvalues --   -0.30180  -0.28626
 Alpha virt. eigenvalues --   -0.02589  -0.01173   0.00198   0.01408   0.02660
 Alpha virt. eigenvalues --    0.05003   0.06849   0.08140   0.08308   0.09247
 Alpha virt. eigenvalues --    0.10203   0.11268   0.11804   0.12672   0.12824

 Mulliken charges:
               1
     1  C    0.109300
     2  C   -0.214704
     3  C   -0.151643
     4  C   -0.147403
     5  C   -0.151126
     6  C   -0.216112
     7  H    0.144780
     8  H    0.144919
     9  H    0.167965
    10  H    0.168211
    11  C   -0.214475
    12  C   -0.155777
    13  C   -0.209203
    14  C    0.100248
    15  C   -0.292492
    16  C    0.107200
    17  H    0.167116
    18  H    0.215582
    19  H    0.144386
    20  H    0.146272
    21  H    0.167488
    22  C   -0.020024
    23  C   -0.179743
    24  C   -0.202436
    25  C    0.094609
    26  C   -0.200457
    27  C   -0.178381
    28  H    0.169694
    29  H    0.175983
    30  H    0.174959
    31  H    0.170022
    32  C    0.505857
    33  F   -0.181703
    34  F   -0.177099
    35  F   -0.181813
 Sum of Mulliken charges =  -0.00000

 Dipole moment (field-independent basis, Debye):
    X=             -3.2714    Y=              1.0102    Z=             -0.1951  Tot=              3.4294
 Quadrupole moment (field-independent basis, Debye-Ang):
   XX=           -133.3811   YY=           -114.1542   ZZ=           -129.4671
   XY=              5.6615   XZ=             -2.3763   YZ=              4.9720

  Exact polarizability:     316.537      11.570     221.400      -7.019      13.924     133.036
 Approx polarizability:     338.080       6.411     305.578      -9.106      26.299     193.319

 Summary of Natural Population Analysis:

                                       Natural Population
                Natural  -----------------------------------------------
    Atom  No    Charge         Core      Valence    Rydberg      Total
 -----------------------------------------------------------------------
      C    1   -0.05277      1.99910     4.03349    0.02018     6.05277
      C    2   -0.19623      1.99914     4.17917    0.01792     6.19623
      C    3   -0.20324      1.99923     4.18558    0.01843     6.20324
      C    4   -0.21075      1.99922     4.19314    0.01840     6.21075
      C    5   -0.20318      1.99923     4.18549    0.01846     6.20318
      C    6   -0.19606      1.99914     4.17883    0.01809     6.19606
      H    7    0.21458      0.00000     0.78438    0.00104     0.78542
      H    8    0.21462      0.00000     0.78435    0.00103     0.78538
      H    9    0.21293      0.00000     0.78590    0.00117     0.78707
      H   10    0.21458      0.00000     0.78418    0.00124     0.78542
      C   11   -0.19714      1.99914     4.18047    0.01753     6.19714
      C   12   -0.19565      1.99923     4.17818    0.01824     6.19565
      C   13   -0.19436      1.99914     4.17770    0.01752     6.19436
      C   14   -0.04015      1.99910     4.02140    0.01965     6.04015
      C   15   -0.18343      1.99906     4.16782    0.01656     6.18343
      C   16   -0.05197      1.99910     4.03327    0.01959     6.05197
      H   17    0.21697      0.00000     0.78186    0.00117     0.78303
      H   18    0.21437      0.00000     0.78287    0.00276     0.78563
      H   19    0.21464      0.00000     0.78434    0.00101     0.78536
      H   20    0.21646      0.00000     0.78254    0.00100     0.78354
      H   21    0.21597      0.00000     0.78287    0.00116     0.78403
      C   22   -0.15513      1.99897     4.13257    0.02359     6.15513
      C   23   -0.17570      1.99915     4.15896    0.01759     6.17570
      C   24   -0.19209      1.99915     4.17505    0.01789     6.19209
      C   25   -0.02833      1.99910     4.00895    0.02028     6.02833
      C   26   -0.19224      1.99915     4.17502    0.01807     6.19224
      C   27   -0.17558      1.99915     4.15881    0.01763     6.17558
      H   28    0.23129      0.00000     0.76759    0.00112     0.76871
      H   29    0.21946      0.00000     0.77941    0.00113     0.78054
      H   30    0.22043      0.00000     0.77837    0.00120     0.77957
      H   31    0.23139      0.00000     0.76750    0.00111     0.76861
      C   32    0.97550      1.99915     2.97567    0.04969     5.02450
      F   33   -0.32293      1.99992     7.31405    0.00896     9.32293
      F   34   -0.32335      1.99992     7.31470    0.00873     9.32335
      F   35   -0.32291      1.99992     7.31403    0.00896     9.32291
 =======================================================================
   * Total *   -0.00000     43.98342   109.58851    0.42807   154.00000

                      1                      2                      3
                      A                      A                      A
 Frequencies --      5.2580                33.5909                45.1311
 Red. masses --     14.0261                 6.4936                 5.0059
 Frc consts  --      0.0002                 0.0043                 0.0060
 IR Inten    --      0.0171                 0.0603                 0.0725

                      4                      5                      6
                      A                      A                      A
 Frequencies --     49.9777                72.8907               101.0736
 Red. masses --      3.7330                 6.0768                 4.4715
 Frc consts  --      0.0055                 0.0190                 0.0269
 IR Inten    --      0.0231                 0.2526                 0.7232

                      7                      8                      9
                      A                      A                      A
 Frequencies --    118.4408               149.6748               188.5825
 Red. masses --      5.5561                 6.4219                 6.9858
 Frc consts  --      0.0459                 0.0848                 0.1464
 IR Inten    --      0.3036                 0.4589                 0.3623

                     10                     11                     12
                      A                      A                      A
 Frequencies --    204.8402               260.3829               278.6113
 Red. masses --      7.6641                 6.1089                 4.5249
 Frc consts  --      0.1895                 0.2440                 0.2069
 IR Inten    --      0.7811                 0.2673                 0.2297

                     13                     14                     15
                      A                      A                      A
 Frequencies --    308.2426               358.4078               371.8134
 Red. masses --      6.1003                 5.7600                 4.7815
 Frc consts  --      0.3415                 0.4359                 0.3895
 IR Inten    --      0.4177                 0.4138                 1.3105

                     16                     17                     18
                      A                      A                      A
 Frequencies --    408.8386               418.3814               418.8022
 Red. masses --      6.0590                 3.1338                 3.0097
 Frc consts  --      0.5967                 0.3232                 0.3110
 IR Inten    --      1.6286                 0.8428                 0.5219

                     19                     20                     21
                      A                      A                      A
 Frequencies --    437.2044               450.1013               473.2656
 Red. masses --      6.5923                 5.3911                 3.7970
 Frc consts  --      0.7424                 0.6435                 0.5011
 IR Inten    --     13.0050                 1.6088                 3.5172

                     22                     23                     24
                      A                      A                      A
 Frequencies --    531.6327               540.4412               589.6503
 Red. masses --      4.3617                 3.7662                11.5153
 Frc consts  --      0.7263                 0.6481                 2.3589
 IR Inten    --      3.4791                 1.8088                 0.2661

                     25                     26                     27
                      A                      A                      A
 Frequencies --    611.9279               628.3692               632.7255
 Red. masses --      4.6747                 6.4541                 5.5676
 Frc consts  --      1.0313                 1.5015                 1.3133
 IR Inten    --      9.6616                 2.9531                 8.9801

                     28                     29                     30
                      A                      A                      A
 Frequencies --    641.5057               657.4294               659.6105
 Red. masses --      4.8200                 5.3202                 7.6444
 Frc consts  --      1.1687                 1.3548                 1.9596
 IR Inten    --      0.8994                 1.5809                 1.0073

                     31                     32                     33
                      A                      A                      A
 Frequencies --    723.1802               726.8597               731.0345
 Red. masses --      1.8763                 4.9673                 2.0090
 Frc consts  --      0.5781                 1.5462                 0.6326
 IR Inten    --     22.0941                24.9666                15.5005

                     34                     35                     36
                      A                      A                      A
 Frequencies --    774.3552               788.2195               796.1894
 Red. masses --      2.9889                 2.9328                 3.7889
 Frc consts  --      1.0560                 1.0736                 1.4151
 IR Inten    --     19.0783                43.7417                14.5195

                     37                     38                     39
                      A                      A                      A
 Frequencies --    834.5270               843.2307               875.5535
 Red. masses --      1.6666                 5.2240                 1.2464
 Frc consts  --      0.6839                 2.1885                 0.5629
 IR Inten    --     22.6063                 3.7205                 0.3977

                     40                     41                     42
                      A                      A                      A
 Frequencies --    876.7348               885.4636               940.4077
 Red. masses --      1.2461                 1.6572                 1.3879
 Frc consts  --      0.5643                 0.7655                 0.7232
 IR Inten    --      0.0705                39.9942                 3.0086

                     43                     44                     45
                      A                      A                      A
 Frequencies --    951.7654               963.1474               999.0766
 Red. masses --      1.4616                 1.5392                 1.3781
 Frc consts  --      0.7801                 0.8413                 0.8105
 IR Inten    --      2.6824                 1.8538                 0.3818

                     46                     47                     48
                      A                      A                      A
 Frequencies --   1003.3714              1005.8401              1008.7422
 Red. masses --      1.3857                 1.3815                 1.3731
 Frc consts  --      0.8220                 0.8235                 0.8232
 IR Inten    --      1.0076                 0.4509                 0.2205

                     49                     50                     51
                      A                      A                      A
 Frequencies --   1017.8778              1018.4866              1024.6731
 Red. masses --      1.6890                 2.8727                 5.0127
 Frc consts  --      1.0310                 1.7557                 3.1009
 IR Inten    --      0.6649                 0.9965                 1.8794

                     52                     53                     54
                      A                      A                      A
 Frequencies --   1033.7029              1049.9129              1071.8209
 Red. masses --      5.0695                 4.0520                 2.1573
 Frc consts  --      3.1916                 2.6316                 1.4602
 IR Inten    --     16.4269                13.4299                 0.8236

                     55                     56                     57
                      A                      A                      A
 Frequencies --   1095.1249              1112.7895              1115.1233
 Red. masses --      1.8901                 3.2308                 1.5212
 Frc consts  --      1.3356                 2.3571                 1.1145
 IR Inten    --      5.1905               106.0660                 2.2433

                     58                     59                     60
                      A                      A                      A
 Frequencies --   1131.4738              1142.5862              1178.6723
 Red. masses --      1.5412                 1.3997                 1.1473
 Frc consts  --      1.1625                 1.0766                 0.9391
 IR Inten    --      3.7659                21.8281                 0.0064

                     61                     62                     63
                      A                      A                      A
 Frequencies --   1195.9655              1205.4821              1209.5079
 Red. masses --      1.1505                 7.4221                 1.1273
 Frc consts  --      0.9696                 6.3547                 0.9717
 IR Inten    --      0.5616               243.4281                 1.2910

                     64                     65                     66
                      A                      A                      A
 Frequencies --   1215.9477              1229.7073              1274.9891
 Red. masses --      1.1967                 8.2114                 2.1411
 Frc consts  --      1.0425                 7.3160                 2.0507
 IR Inten    --     21.1860               176.2443                 6.0900

                     67                     68                     69
                      A                      A                      A
 Frequencies --   1293.4979              1308.5332              1320.2257
 Red. masses --      3.2367                 4.1714                 6.7649
 Frc consts  --      3.1907                 4.2082                 6.9472
 IR Inten    --      0.8096                 4.3295                 6.4299

                     70                     71                     72
                      A                      A                      A
 Frequencies --   1340.9828              1348.4083              1350.6762
 Red. masses --      1.3430                 1.5831                 3.0695
 Frc consts  --      1.4229                 1.6959                 3.2992
 IR Inten    --      1.6654                 2.1404                10.0742

                     73                     74                     75
                      A                      A                      A
 Frequencies --   1357.2596              1369.9582              1441.0303
 Red. masses --      1.5696                 6.0047                 2.9867
 Frc consts  --      1.7036                 6.6398                 3.6541
 IR Inten    --      5.3943               493.6924                25.2901

                     76                     77                     78
                      A                      A                      A
 Frequencies --   1471.4210              1498.8795              1526.6904
 Red. masses --      2.9358                 2.6331                 2.3847
 Frc consts  --      3.7450                 3.4854                 3.2748
 IR Inten    --      1.9985                 6.9339                22.0023

                     79                     80                     81
                      A                      A                      A
 Frequencies --   1551.3809              1574.3366              1642.2129
 Red. masses --      2.7400                 3.0483                 5.8096
 Frc consts  --      3.8855                 4.4515                 9.2312
 IR Inten    --      3.4454                 0.0573                14.3858

                     82                     83                     84
                      A                      A                      A
 Frequencies --   1649.6582              1661.3816              1676.7598
 Red. masses --      6.2689                 6.8773                 6.3210
 Frc consts  --     10.0515                11.1843                10.4708
 IR Inten    --      4.2434                 1.6299                27.4721

                     85                     86                     87
                      A                      A                      A
 Frequencies --   1678.9877              1693.4926              3200.0477
 Red. masses --      6.0836                 6.2316                 1.0866
 Frc consts  --     10.1042                10.5296                 6.5558
 IR Inten    --      0.2566                46.5497                 5.3491

                     88                     89                     90
                      A                      A                      A
 Frequencies --   3202.1853              3203.5326              3205.6853
 Red. masses --      1.0882                 1.0872                 1.0881
 Frc consts  --      6.5742                 6.5741                 6.5882
 IR Inten    --      1.0115                 3.7531                 0.0484

                     91                     92                     93
                      A                      A                      A
 Frequencies --   3210.3650              3211.1374              3213.2516
 Red. masses --      1.0890                 1.0892                 1.0904
 Frc consts  --      6.6125                 6.6173                 6.6331
 IR Inten    --      6.4829                 1.2955                 4.1125

                     94                     95                     96
                      A                      A                      A
 Frequencies --   3214.9800              3220.7744              3226.0434
 Red. masses --      1.0907                 1.0947                 1.0969
 Frc consts  --      6.6422                 6.6909                 6.7261
 IR Inten    --      0.1723                13.2551                 8.3243

                     97                     98                     99
                      A                      A                      A
 Frequencies --   3228.5836              3229.7430              3230.8215
 Red. masses --      1.0942                 1.0953                 1.0986
 Frc consts  --      6.7199                 6.7316                 6.7562
 IR Inten    --      1.9080                 0.1117                 9.5374

 - Thermochemistry -
 -------------------
 Temperature   298.150 Kelvin.  Pressure   1.00000 Atm.
 Atom     1 has atomic number  6 and mass  12.00000

 Molecular mass:   298.09694 amu.
 Principal axes and moments of inertia in atomic units:
                           1         2         3
     Eigenvalues --  2641.00983********************
           X            0.99996   0.00925  -0.00184
           Y           -0.00922   0.99986   0.01373
           Z            0.00197  -0.01371   0.99990
 This molecule is an asymmetric top.
 Rotational symmetry number  1.
 Warning -- assumption of classical behavior for rotation
           may cause significant error
 Rotational temperatures (Kelvin)      0.03280     0.00494     0.00446
 Rotational constants (GHZ):           0.68335     0.10287     0.09290
 Zero-point vibrational energy     707299.7 (Joules/Mol)
                                  169.04868 (Kcal/Mol)
 Warning -- explicit consideration of  25 degrees of freedom as
           vibrations may cause significant error
 Vibrational temperatures:      7.57    48.33    64.93    71.91   104.87
          (Kelvin)            145.42   170.41   215.35   271.33   294.72
                              374.63   400.86   443.49   515.67   534.96
                              588.23   601.96   602.56   629.04   647.60
                              680.92   764.90   777.57   848.38   880.43
                              904.08   910.35   922.98   945.89   949.03
                             1040.49  1045.79  1051.80  1114.12  1134.07
                             1145.54  1200.70  1213.22  1259.73  1261.43
                             1273.98  1353.04  1369.38  1385.75  1437.45
                             1443.63  1447.18  1451.36  1464.50  1465.38
                             1474.28  1487.27  1510.59  1542.11  1575.64
                             1601.06  1604.41  1627.94  1643.93  1695.85
                             1720.73  1734.42  1740.21  1749.48  1769.27
                             1834.42  1861.06  1882.69  1899.51  1929.38
                             1940.06  1943.32  1952.79  1971.06  2073.32
                             2117.05  2156.55  2196.57  2232.09  2265.12
                             2362.78  2373.49  2390.36  2412.48  2415.69
                             2436.56  4604.15  4607.23  4609.17  4612.27
                             4619.00  4620.11  4623.15  4625.64  4633.98
                             4641.56  4645.21  4646.88  4648.43

 Zero-point correction=                           0.269396 (Hartree/Particle)
 Thermal correction to Energy=                    0.286482
 Thermal correction to Enthalpy=                  0.287426
 Thermal correction to Gibbs Free Energy=         0.220600
 Sum of electronic and zero-point Energies=          -1031.135313
 Sum of electronic and thermal Energies=             -1031.118227
 Sum of electronic and thermal Enthalpies=           -1031.117283
 Sum of electronic and thermal Free Energies=        -1031.184109

                     E (Thermal)             CV                S
                      KCal/Mol        Cal/Mol-Kelvin    Cal/Mol-Kelvin
 Total                  179.770             67.386            140.647
 Electronic               0.000              0.000              0.000
 Translational            0.889              2.981             42.974
 Rotational               0.889              2.981             35.153
 Vibrational            177.993             61.424             62.521
 Vibration     1          0.593              1.987              9.288
 Vibration     2          0.594              1.983              5.605
 Vibration     3          0.595              1.979              5.020
 Vibration     4          0.595              1.978              4.818
 Vibration     5          0.599              1.967              4.074
 Vibration     6          0.604              1.948              3.434
 Vibration     7          0.609              1.934              3.126
 Vibration     8          0.618              1.903              2.676
 Vibration     9          0.633              1.856              2.242
 Vibration    10          0.640              1.833              2.089
 Vibration    11          0.668              1.745              1.659
 Vibration    12          0.679              1.713              1.542
 Vibration    13          0.698              1.658              1.372
 Vibration    14          0.733              1.558              1.129
 Vibration    15          0.744              1.530              1.072
 Vibration    16          0.773              1.451              0.931
 Vibration    17          0.781              1.430              0.897
 Vibration    18          0.782              1.429              0.896
 Vibration    19          0.798              1.389              0.835
 Vibration    20          0.809              1.361              0.795
 Vibration    21          0.830              1.309              0.728
 Vibration    22          0.887              1.180              0.584
 Vibration    23          0.896              1.161              0.564
 Vibration    24          0.947              1.054              0.468
 Vibration    25          0.971              1.007              0.430

                           ! Non-Optimized Parameters !
 Normal termination of Gaussian 16 at Wed Nov  1 02:25:14 2023.
