 Gaussian 16, Revision C.01,
 Gaussian 16:  ES64L-G16RevC.01  3-Jul-2019

 -----------------------------------------
 # opt freq=noraman m062x def2tzvp pop=nbo
 -----------------------------------------

 ------------
 Structure697
 ------------
 Symbolic Z-matrix:
 Charge =  0 Multiplicity = 1

 SCF Done:  E(RM062X) =  -620.501237755     A.U. after   14 cycles
 SCF Done:  E(RM062X) =  -620.502844762     A.U. after   15 cycles
 SCF Done:  E(RM062X) =  -620.502910697     A.U. after   15 cycles
 SCF Done:  E(RM062X) =  -620.502916169     A.U. after    8 cycles
 SCF Done:  E(RM062X) =  -620.502916711     A.U. after    7 cycles
 SCF Done:  E(RM062X) =  -620.502917171     A.U. after    7 cycles
 SCF Done:  E(RM062X) =  -620.502917404     A.U. after    7 cycles
 SCF Done:  E(RM062X) =  -620.502917483     A.U. after    6 cycles
 Optimization completed.
    -- Stationary point found.
 Normal termination of Gaussian 16 at Wed Nov  8 10:38:12 2023.

 --------------------------------------------------------------------
 #N Geom=AllCheck Guess=TCheck SCRF=Check GenChk RM062X/def2TZVP Freq
 --------------------------------------------------------------------

 Structure from the checkpoint file:  "ph_35et_5_1_m062x.chk"
 ------------
 Structure697
 ------------
 Charge =  0 Multiplicity = 1

                         Standard orientation:
 ---------------------------------------------------------------------
 Center     Atomic      Atomic             Coordinates (Angstroms)
 Number     Number       Type             X           Y           Z
 ---------------------------------------------------------------------
      1          6           0        2.517200    0.757106   -0.929023
      2          6           0        3.903778    0.757081   -0.929992
      3          6           0        4.602801   -0.000010   -0.000003
      4          6           0        3.903776   -0.757099    0.929988
      5          6           0        2.517198   -0.757119    0.929020
      6          6           0        1.802997   -0.000005   -0.000001
      7          1           0        5.684971   -0.000012   -0.000003
      8          1           0        1.977777   -1.331342    1.672065
      9          1           0        4.440196    1.344019   -1.664497
     10          1           0        1.977781    1.331332   -1.672068
     11          6           0       -2.459940    0.000002    0.000002
     12          6           0       -1.779465    1.188838   -0.242036
     13          6           0       -0.389598    1.174405   -0.240274
     14          6           0        0.321288   -0.000002   -0.000000
     15          6           0       -0.389601   -1.174408    0.240275
     16          6           0       -1.779467   -1.188836    0.242038
     17          1           0        0.150932    2.100675   -0.402855
     18          1           0        0.150926   -2.100679    0.402855
     19          1           0        4.440192   -1.344039    1.664493
     20          1           0       -3.546166    0.000003    0.000002
     21          6           0       -2.532211    2.479443   -0.431143
     22          1           0       -1.963230    3.140329   -1.088174
     23          1           0       -3.483150    2.276617   -0.928145
     24          6           0       -2.532219   -2.479438    0.431147
     25          1           0       -1.963221   -3.140342    1.088146
     26          1           0       -3.483138   -2.276613    0.928187
     27          6           0       -2.791428    3.182807    0.902443
     28          1           0       -3.376010    2.543274    1.565253
     29          1           0       -3.336604    4.115896    0.756511
     30          1           0       -1.850069    3.409544    1.404822
     31          6           0       -2.791490   -3.182775   -0.902442
     32          1           0       -1.850151   -3.409512   -1.404859
     33          1           0       -3.336669   -4.115861   -0.756507
     34          1           0       -3.376090   -2.543225   -1.565220
 ---------------------------------------------------------------------

 SCF Done:  E(RM062X) =  -620.502917483     A.U. after    1 cycles

 The electronic state is 1-A.
 Alpha  occ. eigenvalues --  -10.54947 -10.54753 -10.54348 -10.54347 -10.54035
 Alpha  occ. eigenvalues --  -10.54017 -10.53908 -10.53898 -10.53866 -10.53562
 Alpha  occ. eigenvalues --  -10.53562 -10.53283 -10.53280 -10.53202 -10.52445
 Alpha  occ. eigenvalues --  -10.52445  -0.97835  -0.95728  -0.89943  -0.88935
 Alpha  occ. eigenvalues --   -0.84565  -0.84384  -0.81066  -0.80902  -0.72435
 Alpha  occ. eigenvalues --   -0.71908  -0.70304  -0.68723  -0.64767  -0.63869
 Alpha  occ. eigenvalues --   -0.59593  -0.56663  -0.55540  -0.53636  -0.51540
 Alpha  occ. eigenvalues --   -0.51388  -0.50502  -0.50316  -0.48767  -0.48399
 Alpha  occ. eigenvalues --   -0.47885  -0.46138  -0.45074  -0.44414  -0.43625
 Alpha  occ. eigenvalues --   -0.42961  -0.42019  -0.40984  -0.40803  -0.40403
 Alpha  occ. eigenvalues --   -0.39734  -0.38073  -0.37778  -0.32757  -0.30867
 Alpha  occ. eigenvalues --   -0.29161  -0.27516
 Alpha virt. eigenvalues --   -0.00204   0.02113   0.02557   0.05400   0.06570
 Alpha virt. eigenvalues --    0.07976   0.08566   0.09956   0.09967   0.11275
 Alpha virt. eigenvalues --    0.11358   0.12149   0.12310   0.13145   0.14299

 Mulliken charges:
               1
     1  C   -0.213968
     2  C   -0.151575
     3  C   -0.148957
     4  C   -0.151575
     5  C   -0.213968
     6  C    0.105515
     7  H    0.141662
     8  H    0.165900
     9  H    0.142156
    10  H    0.165900
    11  C   -0.237459
    12  C    0.147057
    13  C   -0.279908
    14  C    0.138038
    15  C   -0.279907
    16  C    0.147057
    17  H    0.175700
    18  H    0.175700
    19  H    0.142156
    20  H    0.152897
    21  C   -0.372914
    22  H    0.143873
    23  H    0.143980
    24  C   -0.372915
    25  H    0.143872
    26  H    0.143981
    27  C   -0.396297
    28  H    0.140032
    29  H    0.137666
    30  H    0.142451
    31  C   -0.396297
    32  H    0.142451
    33  H    0.137666
    34  H    0.140032
 Sum of Mulliken charges =  -0.00000

 Dipole moment (field-independent basis, Debye):
    X=             -0.4649    Y=              0.0000    Z=              0.0000  Tot=              0.4649
 Quadrupole moment (field-independent basis, Debye-Ang):
   XX=            -88.1565   YY=            -92.5364   ZZ=            -98.9216
   XY=             -0.0000   XZ=             -0.0000   YZ=             -5.2389

  Exact polarizability:     246.182       0.000     183.583      -0.000     -16.914     133.129
 Approx polarizability:     280.010      -0.000     229.545      -0.000     -33.170     185.878

 Summary of Natural Population Analysis:

                                       Natural Population
                Natural  -----------------------------------------------
    Atom  No    Charge         Core      Valence    Rydberg      Total
 -----------------------------------------------------------------------
      C    1   -0.19778      1.99914     4.18071    0.01793     6.19778
      C    2   -0.20477      1.99923     4.18713    0.01841     6.20477
      C    3   -0.21495      1.99922     4.19726    0.01847     6.21495
      C    4   -0.20477      1.99923     4.18713    0.01841     6.20477
      C    5   -0.19778      1.99914     4.18071    0.01793     6.19778
      C    6   -0.04715      1.99910     4.02787    0.02018     6.04715
      H    7    0.21292      0.00000     0.78606    0.00102     0.78708
      H    8    0.21421      0.00000     0.78463    0.00115     0.78579
      H    9    0.21284      0.00000     0.78613    0.00103     0.78716
      H   10    0.21421      0.00000     0.78463    0.00115     0.78579
      C   11   -0.21837      1.99901     4.20155    0.01781     6.21837
      C   12   -0.00060      1.99915     3.98165    0.01980     6.00060
      C   13   -0.21142      1.99903     4.19608    0.01631     6.21142
      C   14   -0.03356      1.99911     4.01535    0.01911     6.03356
      C   15   -0.21142      1.99903     4.19608    0.01631     6.21142
      C   16   -0.00060      1.99915     3.98165    0.01980     6.00060
      H   17    0.20733      0.00000     0.79021    0.00246     0.79267
      H   18    0.20733      0.00000     0.79021    0.00246     0.79267
      H   19    0.21284      0.00000     0.78613    0.00103     0.78716
      H   20    0.20261      0.00000     0.79544    0.00195     0.79739
      C   21   -0.41121      1.99942     4.39761    0.01417     6.41121
      H   22    0.20698      0.00000     0.79176    0.00126     0.79302
      H   23    0.20681      0.00000     0.79192    0.00127     0.79319
      C   24   -0.41121      1.99942     4.39761    0.01417     6.41121
      H   25    0.20698      0.00000     0.79176    0.00126     0.79302
      H   26    0.20681      0.00000     0.79192    0.00127     0.79319
      C   27   -0.58642      1.99949     4.58145    0.00548     6.58642
      H   28    0.20344      0.00000     0.79530    0.00126     0.79656
      H   29    0.20509      0.00000     0.79379    0.00112     0.79491
      H   30    0.20475      0.00000     0.79408    0.00117     0.79525
      C   31   -0.58642      1.99949     4.58145    0.00548     6.58642
      H   32    0.20475      0.00000     0.79408    0.00117     0.79525
      H   33    0.20509      0.00000     0.79379    0.00112     0.79491
      H   34    0.20344      0.00000     0.79530    0.00126     0.79656
 =======================================================================
   * Total *   -0.00000     31.98738    81.72845    0.28417   114.00000

                      1                      2                      3
                      A                      A                      A
 Frequencies --     30.8939                31.6847                52.0699
 Red. masses --      2.5141                 2.5479                 3.6386
 Frc consts  --      0.0014                 0.0015                 0.0058
 IR Inten    --      0.0135                 0.0202                 0.0007

                      4                      5                      6
                      A                      A                      A
 Frequencies --     71.0140               101.5074               130.6163
 Red. masses --      3.7942                 3.3616                 3.7108
 Frc consts  --      0.0113                 0.0204                 0.0373
 IR Inten    --      1.0163                 0.1532                 0.0832

                      7                      8                      9
                      A                      A                      A
 Frequencies --    152.7730               200.8473               226.2670
 Red. masses --      3.3713                 1.2814                 1.2801
 Frc consts  --      0.0464                 0.0305                 0.0386
 IR Inten    --      0.0014                 0.0924                 0.0624

                     10                     11                     12
                      A                      A                      A
 Frequencies --    261.2831               275.1831               298.5212
 Red. masses --      2.5635                 2.4039                 2.5347
 Frc consts  --      0.1031                 0.1073                 0.1331
 IR Inten    --      0.1053                 0.0205                 0.0000

                     13                     14                     15
                      A                      A                      A
 Frequencies --    330.4991               340.9080               348.3336
 Red. masses --      3.5382                 3.4467                 3.0555
 Frc consts  --      0.2277                 0.2360                 0.2184
 IR Inten    --      0.3378                 0.7651                 0.2103

                     16                     17                     18
                      A                      A                      A
 Frequencies --    419.4990               449.6884               529.9721
 Red. masses --      2.9461                 2.7357                 3.7292
 Frc consts  --      0.3055                 0.3259                 0.6171
 IR Inten    --      0.1385                 0.3029                 4.3212

                     19                     20                     21
                      A                      A                      A
 Frequencies --    535.5347               547.6215               630.4319
 Red. masses --      4.2230                 3.5134                 5.6072
 Frc consts  --      0.7136                 0.6208                 1.3130
 IR Inten    --      1.1564                 2.0123                 0.6395

                     22                     23                     24
                      A                      A                      A
 Frequencies --    642.1876               647.5123               673.0927
 Red. masses --      5.0192                 4.2681                 4.0310
 Frc consts  --      1.2196                 1.0543                 1.0760
 IR Inten    --      5.5707                 4.6753                 2.1853

                     25                     26                     27
                      A                      A                      A
 Frequencies --    724.1876               740.5113               788.2695
 Red. masses --      1.7075                 1.9146                 1.1657
 Frc consts  --      0.5276                 0.6186                 0.4268
 IR Inten    --     36.5504                13.6988                 0.6309

                     28                     29                     30
                      A                      A                      A
 Frequencies --    789.8688               800.6113               866.6437
 Red. masses --      1.5549                 1.3459                 4.2464
 Frc consts  --      0.5716                 0.5083                 1.8791
 IR Inten    --     27.9935                14.3194                 5.1064

                     31                     32                     33
                      A                      A                      A
 Frequencies --    877.2148               908.8664               915.2602
 Red. masses --      1.2653                 2.3646                 1.8451
 Frc consts  --      0.5736                 1.1508                 0.9107
 IR Inten    --      0.0128                 7.4915                18.1251

                     34                     35                     36
                      A                      A                      A
 Frequencies --    928.1990               931.9233               960.3265
 Red. masses --      1.3664                 1.3704                 1.5418
 Frc consts  --      0.6936                 0.7012                 0.8378
 IR Inten    --      0.5088                 0.3533                 0.4629

                     37                     38                     39
                      A                      A                      A
 Frequencies --    989.2627               999.3256              1015.5607
 Red. masses --      2.1625                 1.3810                 1.2954
 Frc consts  --      1.2469                 0.8126                 0.7872
 IR Inten    --      0.1910                 0.2614                 0.0481

                     40                     41                     42
                      A                      A                      A
 Frequencies --   1019.3298              1024.0819              1034.5194
 Red. masses --      6.2452                 5.6445                 2.3507
 Frc consts  --      3.8232                 3.4878                 1.4823
 IR Inten    --      0.1267                 0.0811                 0.0647

                     43                     44                     45
                      A                      A                      A
 Frequencies --   1059.4656              1072.1244              1086.2572
 Red. masses --      2.1358                 1.6291                 1.6245
 Frc consts  --      1.4125                 1.1033                 1.1294
 IR Inten    --      0.9005                 3.8903                 2.9039

                     46                     47                     48
                      A                      A                      A
 Frequencies --   1092.8354              1095.4505              1114.9352
 Red. masses --      2.0790                 1.8140                 1.5171
 Frc consts  --      1.4629                 1.2826                 1.1111
 IR Inten    --      6.8032                 8.4856                 5.1005

                     49                     50                     51
                      A                      A                      A
 Frequencies --   1129.2334              1178.2913              1197.9133
 Red. masses --      1.6896                 1.1514                 1.3645
 Frc consts  --      1.2694                 0.9419                 1.1537
 IR Inten    --      0.3632                 0.0054                 0.9213

                     52                     53                     54
                      A                      A                      A
 Frequencies --   1209.1678              1237.5641              1258.0549
 Red. masses --      1.1305                 1.7887                 1.6914
 Frc consts  --      0.9739                 1.6141                 1.5773
 IR Inten    --      0.6171                 1.1602                 0.0675

                     55                     56                     57
                      A                      A                      A
 Frequencies --   1280.0922              1301.3041              1324.2103
 Red. masses --      1.2267                 2.2963                 2.0014
 Frc consts  --      1.1844                 2.2910                 2.0677
 IR Inten    --      0.0737                 0.1671                 0.2062

                     58                     59                     60
                      A                      A                      A
 Frequencies --   1333.4255              1333.7594              1351.0306
 Red. masses --      1.8541                 1.7133                 1.4917
 Frc consts  --      1.9423                 1.7957                 1.6042
 IR Inten    --      0.0854                 1.9780                 3.0220

                     61                     62                     63
                      A                      A                      A
 Frequencies --   1358.3256              1384.4483              1406.5583
 Red. masses --      1.5181                 3.1390                 1.2319
 Frc consts  --      1.6503                 3.5448                 1.4360
 IR Inten    --      0.8496                 0.6009                 6.8062

                     64                     65                     66
                      A                      A                      A
 Frequencies --   1408.5352              1472.2602              1489.6020
 Red. masses --      1.2860                 2.5632                 1.0758
 Frc consts  --      1.5033                 3.2734                 1.4064
 IR Inten    --      0.2234                 7.2570                 0.1391

                     67                     68                     69
                      A                      A                      A
 Frequencies --   1489.6045              1497.1726              1497.2420
 Red. masses --      1.0853                 1.0462                 1.0398
 Frc consts  --      1.4188                 1.3817                 1.3734
 IR Inten    --      1.9259                11.1623                 4.7234

                     70                     71                     72
                      A                      A                      A
 Frequencies --   1503.0970              1506.5370              1510.4928
 Red. masses --      2.1650                 1.3352                 1.2415
 Frc consts  --      2.8820                 1.7854                 1.6690
 IR Inten    --     17.0640                 9.1786                 7.3526

                     73                     74                     75
                      A                      A                      A
 Frequencies --   1512.3917              1549.2964              1649.8383
 Red. masses --      1.9628                 2.6813                 5.6902
 Frc consts  --      2.6451                 3.7920                 9.1256
 IR Inten    --      3.0421                10.2108                 8.9029

                     76                     77                     78
                      A                      A                      A
 Frequencies --   1671.8716              1671.9226              1678.9470
 Red. masses --      6.3567                 6.5284                 6.0120
 Frc consts  --     10.4686                10.7519                 9.9849
 IR Inten    --     34.2029                24.1364                 4.8015

                     79                     80                     81
                      A                      A                      A
 Frequencies --   3062.3394              3062.4700              3070.0783
 Red. masses --      1.0355                 1.0353                 1.0588
 Frc consts  --      5.7216                 5.7208                 5.8796
 IR Inten    --     39.2643                 8.8588                42.9540

                     82                     83                     84
                      A                      A                      A
 Frequencies --   3070.1281              3107.2478              3107.3948
 Red. masses --      1.0590                 1.1037                 1.1037
 Frc consts  --      5.8812                 6.2784                 6.2789
 IR Inten    --      4.4846                 1.5130                 5.7283

                     85                     86                     87
                      A                      A                      A
 Frequencies --   3139.3109              3139.4200              3140.4530
 Red. masses --      1.1029                 1.1029                 1.1035
 Frc consts  --      6.4042                 6.4044                 6.4123
 IR Inten    --     60.1841                 2.8757                 0.5284

                     88                     89                     90
                      A                      A                      A
 Frequencies --   3140.6539              3171.8615              3188.5740
 Red. masses --      1.1035                 1.0899                 1.0899
 Frc consts  --      6.4130                 6.4607                 6.5286
 IR Inten    --     49.3677                12.5222                 6.7865

                     91                     92                     93
                      A                      A                      A
 Frequencies --   3189.6147              3197.5233              3201.7188
 Red. masses --      1.0902                 1.0855                 1.0877
 Frc consts  --      6.5346                 6.5387                 6.5693
 IR Inten    --      3.1031                 2.8436                 0.0839

                     94                     95                     96
                      A                      A                      A
 Frequencies --   3210.9213              3217.0422              3227.7592
 Red. masses --      1.0912                 1.0948                 1.0985
 Frc consts  --      6.6283                 6.6756                 6.7430
 IR Inten    --      3.7428                15.5834                11.8015

 - Thermochemistry -
 -------------------
 Temperature   298.150 Kelvin.  Pressure   1.00000 Atm.
 Atom     1 has atomic number  6 and mass  12.00000

 Molecular mass:   210.14085 amu.
 Principal axes and moments of inertia in atomic units:
                           1         2         3
     Eigenvalues --  2486.389895628.525297443.54706
           X            1.00000   0.00000   0.00000
           Y           -0.00000   0.99999   0.00408
           Z           -0.00000  -0.00408   0.99999
 This molecule is an asymmetric top.
 Rotational symmetry number  1.
 Warning -- assumption of classical behavior for rotation
           may cause significant error
 Rotational temperatures (Kelvin)      0.03484     0.01539     0.01164
 Rotational constants (GHZ):           0.72585     0.32064     0.24246
 Zero-point vibrational energy     776374.5 (Joules/Mol)
                                  185.55795 (Kcal/Mol)
 Warning -- explicit consideration of  20 degrees of freedom as
           vibrations may cause significant error
 Vibrational temperatures:     44.45    45.59    74.92   102.17   146.05
          (Kelvin)            187.93   219.81   288.97   325.55   375.93
                              395.93   429.51   475.51   490.49   501.17
                              603.57   647.00   762.51   770.51   787.91
                              907.05   923.96   931.63   968.43  1041.94
                             1065.43  1134.14  1136.45  1151.90  1246.91
                             1262.12  1307.66  1316.86  1335.47  1340.83
                             1381.70  1423.33  1437.81  1461.17  1466.59
                             1473.43  1488.44  1524.33  1542.55  1562.88
                             1572.35  1576.11  1604.14  1624.71  1695.30
                             1723.53  1739.72  1780.58  1810.06  1841.77
                             1872.29  1905.24  1918.50  1918.98  1943.83
                             1954.33  1991.91  2023.72  2026.57  2118.25
                             2143.20  2143.21  2154.10  2154.20  2162.62
                             2167.57  2173.26  2175.99  2229.09  2373.75
                             2405.45  2405.52  2415.63  4406.02  4406.21
                             4417.16  4417.23  4470.64  4470.85  4516.77
                             4516.93  4518.41  4518.70  4563.60  4587.65
                             4589.14  4600.52  4606.56  4619.80  4628.61
                             4644.03

 Zero-point correction=                           0.295705 (Hartree/Particle)
 Thermal correction to Energy=                    0.310616
 Thermal correction to Enthalpy=                  0.311560
 Thermal correction to Gibbs Free Energy=         0.252088
 Sum of electronic and zero-point Energies=           -620.207212
 Sum of electronic and thermal Energies=              -620.192302
 Sum of electronic and thermal Enthalpies=            -620.191357
 Sum of electronic and thermal Free Energies=         -620.250829

                     E (Thermal)             CV                S
                      KCal/Mol        Cal/Mol-Kelvin    Cal/Mol-Kelvin
 Total                  194.914             57.481            125.169
 Electronic               0.000              0.000              0.000
 Translational            0.889              2.981             41.932
 Rotational               0.889              2.981             33.010
 Vibrational            193.137             51.519             50.227
 Vibration     1          0.594              1.984              5.771
 Vibration     2          0.594              1.983              5.721
 Vibration     3          0.596              1.977              4.737
 Vibration     4          0.598              1.968              4.125
 Vibration     5          0.604              1.948              3.425
 Vibration     6          0.612              1.923              2.937
 Vibration     7          0.619              1.900              2.637
 Vibration     8          0.638              1.839              2.125
 Vibration     9          0.650              1.801              1.908
 Vibration    10          0.669              1.744              1.653
 Vibration    11          0.677              1.719              1.563
 Vibration    12          0.692              1.676              1.425
 Vibration    13          0.713              1.615              1.258
 Vibration    14          0.720              1.594              1.208
 Vibration    15          0.726              1.579              1.174
 Vibration    16          0.782              1.428              0.894
 Vibration    17          0.809              1.362              0.797
 Vibration    18          0.885              1.184              0.587
 Vibration    19          0.891              1.171              0.575
 Vibration    20          0.903              1.145              0.549

 Optimization completed.
    -- Stationary point found.
 Normal termination of Gaussian 16 at Wed Nov  8 11:53:41 2023.
