 Gaussian 16, Revision C.01,
 Gaussian 16:  ES64L-G16RevC.01  3-Jul-2019

 -----------------------------------------
 # opt freq=noraman m062x def2tzvp pop=nbo
 -----------------------------------------

 ------------
 Structure697
 ------------
 Symbolic Z-matrix:
 Charge =  0 Multiplicity = 1

 SCF Done:  E(RM062X) =  -541.887415739     A.U. after   16 cycles
 SCF Done:  E(RM062X) =  -541.888764682     A.U. after   16 cycles
 SCF Done:  E(RM062X) =  -541.888837958     A.U. after   14 cycles
 SCF Done:  E(RM062X) =  -541.888841451     A.U. after   11 cycles
 SCF Done:  E(RM062X) =  -541.888841802     A.U. after    7 cycles
 SCF Done:  E(RM062X) =  -541.888841999     A.U. after    6 cycles
 SCF Done:  E(RM062X) =  -541.888842693     A.U. after   16 cycles
 SCF Done:  E(RM062X) =  -541.888844141     A.U. after   19 cycles
 SCF Done:  E(RM062X) =  -541.888843486     A.U. after   20 cycles
 SCF Done:  E(RM062X) =  -541.888846021     A.U. after   28 cycles
 SCF Done:  E(RM062X) =  -541.848589248     A.U. after   23 cycles
 SCF Done:  E(RM062X) =  -541.888824992     A.U. after   17 cycles
 SCF Done:  E(RM062X) =  -541.888849517     A.U. after   23 cycles
 SCF Done:  E(RM062X) =  -541.888728270     A.U. after   22 cycles
 SCF Done:  E(RM062X) =  -541.888851268     A.U. after   18 cycles
 SCF Done:  E(RM062X) =  -541.888850447     A.U. after   19 cycles
 SCF Done:  E(RM062X) =  -541.888846303     A.U. after   22 cycles
 SCF Done:  E(RM062X) =  -541.888851511     A.U. after   13 cycles
 SCF Done:  E(RM062X) =  -541.888851764     A.U. after    7 cycles
 Optimization completed.
    -- Stationary point found.
 Normal termination of Gaussian 16 at Tue Nov 14 02:28:47 2023.

 --------------------------------------------------------------------
 #N Geom=AllCheck Guess=TCheck SCRF=Check GenChk RM062X/def2TZVP Freq
 --------------------------------------------------------------------

 Structure from the checkpoint file:  "ph_35me_2_1_m062x.chk"
 ------------
 Structure697
 ------------
 Charge =  0 Multiplicity = 1

                         Standard orientation:
 ---------------------------------------------------------------------
 Center     Atomic      Atomic             Coordinates (Angstroms)
 Number     Number       Type             X           Y           Z
 ---------------------------------------------------------------------
      1          6           0       -2.056451    1.029513   -0.613460
      2          6           0       -3.443023    1.029808   -0.614437
      3          6           0       -4.142016   -0.000000   -0.000000
      4          6           0       -3.443023   -1.029809    0.614437
      5          6           0       -2.056451   -1.029513    0.613460
      6          6           0       -1.342195   -0.000000   -0.000000
      7          1           0       -5.224182   -0.000001   -0.000000
      8          1           0       -1.517104   -1.823614    1.114742
      9          1           0       -3.979384    1.832892   -1.103424
     10          1           0       -1.517104    1.823613   -1.114742
     11          6           0        2.918738    0.000000    0.000001
     12          6           0        2.239153    1.200349    0.179803
     13          6           0        0.849439    1.185626    0.179582
     14          6           0        0.139534    0.000000    0.000001
     15          6           0        0.849440   -1.185627   -0.179582
     16          6           0        2.239152   -1.200349   -0.179802
     17          1           0        0.307696    2.109763    0.346225
     18          1           0        0.307695   -2.109764   -0.346225
     19          1           0       -3.979385   -1.832892    1.103424
     20          1           0        4.004078   -0.000001    0.000001
     21          6           0        2.994491   -2.490328   -0.348590
     22          1           0        3.243821   -2.920233    0.624062
     23          1           0        2.402713   -3.225187   -0.893413
     24          1           0        3.928491   -2.332728   -0.887661
     25          6           0        2.994488    2.490330    0.348590
     26          1           0        3.243763    2.920266   -0.624063
     27          1           0        2.402730    3.225167    0.893464
     28          1           0        3.928516    2.332723    0.887608
 ---------------------------------------------------------------------

 SCF Done:  E(RM062X) =  -541.888851764     A.U. after    1 cycles

 The electronic state is 1-A.
 Alpha  occ. eigenvalues --  -10.54936 -10.54733 -10.54636 -10.54635 -10.54029
 Alpha  occ. eigenvalues --  -10.54011 -10.53904 -10.53893 -10.53862 -10.53230
 Alpha  occ. eigenvalues --  -10.53227 -10.53127 -10.53062 -10.53062  -0.97763
 Alpha  occ. eigenvalues --   -0.95603  -0.88331  -0.88153  -0.84345  -0.82283
 Alpha  occ. eigenvalues --   -0.78174  -0.77171  -0.70730  -0.69068  -0.64949
 Alpha  occ. eigenvalues --   -0.64824  -0.59638  -0.56627  -0.54807  -0.53319
 Alpha  occ. eigenvalues --   -0.51279  -0.49509  -0.49475  -0.48753  -0.48069
 Alpha  occ. eigenvalues --   -0.47709  -0.46574  -0.46149  -0.44856  -0.43381
 Alpha  occ. eigenvalues --   -0.42087  -0.41266  -0.40363  -0.38791  -0.38619
 Alpha  occ. eigenvalues --   -0.32730  -0.30860  -0.29171  -0.27530
 Alpha virt. eigenvalues --   -0.00262   0.02121   0.02733   0.05395   0.07251
 Alpha virt. eigenvalues --    0.08740   0.08803   0.10772   0.11089   0.11988
 Alpha virt. eigenvalues --    0.12644   0.13192   0.13590   0.14719   0.15522

 Mulliken charges:
               1
     1  C   -0.215899
     2  C   -0.150621
     3  C   -0.149709
     4  C   -0.150621
     5  C   -0.215899
     6  C    0.107572
     7  H    0.141732
     8  H    0.165969
     9  H    0.141994
    10  H    0.165969
    11  C   -0.222928
    12  C    0.123940
    13  C   -0.275215
    14  C    0.126635
    15  C   -0.275216
    16  C    0.123940
    17  H    0.170115
    18  H    0.170115
    19  H    0.141994
    20  H    0.142009
    21  C   -0.484130
    22  H    0.159601
    23  H    0.145011
    24  H    0.146580
    25  C   -0.484130
    26  H    0.159601
    27  H    0.145012
    28  H    0.146579
 Sum of Mulliken charges =  -0.00000

 Dipole moment (field-independent basis, Debye):
    X=              0.4858    Y=              0.0000    Z=             -0.0000  Tot=              0.4858
 Quadrupole moment (field-independent basis, Debye-Ang):
   XX=            -74.4535   YY=            -76.7236   ZZ=            -87.6642
   XY=             -0.0000   XZ=             -0.0000   YZ=             -2.4104

  Exact polarizability:     224.456      -0.000     164.649      -0.000      -7.916      99.221
 Approx polarizability:     252.956      -0.000     218.355      -0.000     -14.541     140.557

 Summary of Natural Population Analysis:

                                       Natural Population
                Natural  -----------------------------------------------
    Atom  No    Charge         Core      Valence    Rydberg      Total
 -----------------------------------------------------------------------
      C    1   -0.19756      1.99914     4.18031    0.01810     6.19756
      C    2   -0.20500      1.99923     4.18730    0.01847     6.20500
      C    3   -0.21479      1.99922     4.19706    0.01851     6.21479
      C    4   -0.20500      1.99923     4.18730    0.01847     6.20500
      C    5   -0.19756      1.99914     4.18031    0.01810     6.19756
      C    6   -0.04745      1.99910     4.02813    0.02023     6.04745
      H    7    0.21290      0.00000     0.78608    0.00102     0.78710
      H    8    0.21416      0.00000     0.78464    0.00121     0.78584
      H    9    0.21282      0.00000     0.78614    0.00104     0.78718
      H   10    0.21416      0.00000     0.78464    0.00121     0.78584
      C   11   -0.21280      1.99902     4.19717    0.01660     6.21280
      C   12   -0.00750      1.99917     3.99093    0.01741     6.00750
      C   13   -0.20812      1.99904     4.19205    0.01703     6.20812
      C   14   -0.03248      1.99911     4.01484    0.01854     6.03248
      C   15   -0.20812      1.99904     4.19205    0.01703     6.20812
      C   16   -0.00750      1.99917     3.99093    0.01741     6.00750
      H   17    0.20761      0.00000     0.79066    0.00173     0.79239
      H   18    0.20761      0.00000     0.79066    0.00173     0.79239
      H   19    0.21282      0.00000     0.78614    0.00104     0.78718
      H   20    0.20189      0.00000     0.79653    0.00157     0.79811
      C   21   -0.61814      1.99945     4.60739    0.01130     6.61814
      H   22    0.21912      0.00000     0.77977    0.00111     0.78088
      H   23    0.21435      0.00000     0.78476    0.00089     0.78565
      H   24    0.21463      0.00000     0.78444    0.00093     0.78537
      C   25   -0.61814      1.99945     4.60739    0.01130     6.61814
      H   26    0.21912      0.00000     0.77977    0.00111     0.78088
      H   27    0.21435      0.00000     0.78476    0.00089     0.78565
      H   28    0.21463      0.00000     0.78444    0.00093     0.78537
 =======================================================================
   * Total *    0.00000     27.98850    69.75660    0.25490    98.00000

                      1                      2                      3
                      A                      A                      A
 Frequencies --     37.0204                54.0138                58.1484
 Red. masses --      1.0165                 1.0964                 2.8558
 Frc consts  --      0.0008                 0.0019                 0.0057
 IR Inten    --      0.1150                 0.2806                 0.0293

                      4                      5                      6
                      A                      A                      A
 Frequencies --     84.3687               105.2584               195.3027
 Red. masses --      4.2417                 3.8687                 3.1013
 Frc consts  --      0.0178                 0.0253                 0.0697
 IR Inten    --      1.2521                 0.2178                 2.4328

                      7                      8                      9
                      A                      A                      A
 Frequencies --    232.6268               251.0964               257.2139
 Red. masses --      3.1410                 2.9573                 3.9289
 Frc consts  --      0.1001                 0.1099                 0.1531
 IR Inten    --      0.0782                 0.2851                 0.0651

                     10                     11                     12
                      A                      A                      A
 Frequencies --    324.4252               327.4389               419.1949
 Red. masses --      3.7169                 4.4158                 2.9359
 Frc consts  --      0.2305                 0.2789                 0.3040
 IR Inten    --      0.0957                 0.2281                 0.1402

                     13                     14                     15
                      A                      A                      A
 Frequencies --    446.7248               515.6450               530.4102
 Red. masses --      2.9979                 4.1183                 3.1380
 Frc consts  --      0.3525                 0.6452                 0.5201
 IR Inten    --      0.4669                 2.8676                 0.0236

                     16                     17                     18
                      A                      A                      A
 Frequencies --    548.5794               554.4519               605.9340
 Red. masses --      3.8292                 4.4702                 3.5009
 Frc consts  --      0.6790                 0.8097                 0.7573
 IR Inten    --      1.6145                 2.4922                 7.1962

                     19                     20                     21
                      A                      A                      A
 Frequencies --    635.1969               662.4450               723.7550
 Red. masses --      6.0795                 6.3140                 1.6855
 Frc consts  --      1.4452                 1.6325                 0.5202
 IR Inten    --      0.6690                 5.4342                37.4084

                     22                     23                     24
                      A                      A                      A
 Frequencies --    727.1614               792.6916               874.9432
 Red. masses --      2.2213                 1.8393                 1.4802
 Frc consts  --      0.6920                 0.6809                 0.6676
 IR Inten    --      8.2799                45.0010                 1.1682

                     25                     26                     27
                      A                      A                      A
 Frequencies --    878.3693               887.3202               916.3463
 Red. masses --      3.1808                 1.4220                 1.3030
 Frc consts  --      1.4459                 0.6596                 0.6446
 IR Inten    --      1.4524                16.4797                 0.9518

                     28                     29                     30
                      A                      A                      A
 Frequencies --    930.8213               954.5614               980.4680
 Red. masses --      1.3832                 1.6444                 2.7299
 Frc consts  --      0.7061                 0.8828                 1.5462
 IR Inten    --      1.6643                 1.8340                 1.1127

                     31                     32                     33
                      A                      A                      A
 Frequencies --    998.1737              1008.0820              1015.8083
 Red. masses --      1.3786                 1.5340                 1.2993
 Frc consts  --      0.8093                 0.9184                 0.7899
 IR Inten    --      0.2978                 1.1348                 0.0732

                     34                     35                     36
                      A                      A                      A
 Frequencies --   1019.6981              1024.0738              1037.6579
 Red. masses --      5.3924                 5.6065                 1.5650
 Frc consts  --      3.3035                 3.4642                 0.9928
 IR Inten    --      0.0371                 0.0900                 0.2926

                     37                     38                     39
                      A                      A                      A
 Frequencies --   1064.9346              1066.3493              1067.4869
 Red. masses --      1.7318                 1.9052                 1.5988
 Frc consts  --      1.1572                 1.2764                 1.0734
 IR Inten    --      0.0036                 5.2750                 9.4779

                     40                     41                     42
                      A                      A                      A
 Frequencies --   1114.2230              1122.7241              1177.9780
 Red. masses --      1.5163                 1.8548                 1.1504
 Frc consts  --      1.1091                 1.3775                 0.9405
 IR Inten    --      4.5490                 1.3008                 0.0002

                     43                     44                     45
                      A                      A                      A
 Frequencies --   1200.2288              1208.0901              1241.1620
 Red. masses --      1.3839                 1.1279                 1.8919
 Frc consts  --      1.1746                 0.9699                 1.7172
 IR Inten    --      0.0559                 0.4694                 0.3439

                     46                     47                     48
                      A                      A                      A
 Frequencies --   1283.3380              1311.7741              1334.1640
 Red. masses --      2.4580                 4.8214                 1.6294
 Frc consts  --      2.3852                 4.8881                 1.7089
 IR Inten    --      0.0979                 0.2761                 0.1313

                     49                     50                     51
                      A                      A                      A
 Frequencies --   1356.3299              1363.7993              1411.4713
 Red. masses --      1.5157                 3.2792                 1.2457
 Frc consts  --      1.6428                 3.5936                 1.4622
 IR Inten    --      0.8931                 0.2691                 1.5720

                     52                     53                     54
                      A                      A                      A
 Frequencies --   1417.8190              1464.7389              1467.4485
 Red. masses --      1.4737                 2.1420                 1.5084
 Frc consts  --      1.7454                 2.7077                 1.9138
 IR Inten    --      0.2597                 3.9029                 0.3448

                     55                     56                     57
                      A                      A                      A
 Frequencies --   1492.0794              1492.6503              1493.2069
 Red. masses --      1.0871                 1.3166                 1.0533
 Frc consts  --      1.4259                 1.7282                 1.3837
 IR Inten    --     14.7757                 6.8010                 0.0448

                     58                     59                     60
                      A                      A                      A
 Frequencies --   1516.1447              1518.9067              1550.1151
 Red. masses --      2.2256                 1.7140                 2.6181
 Frc consts  --      3.0142                 2.3298                 3.7065
 IR Inten    --      5.8728                40.6737                 4.7478

                     61                     62                     63
                      A                      A                      A
 Frequencies --   1650.0183              1673.4230              1673.9938
 Red. masses --      5.7148                 6.1914                 6.4384
 Frc consts  --      9.1671                10.2152                10.6301
 IR Inten    --      9.3239                34.5019                26.9609

                     64                     65                     66
                      A                      A                      A
 Frequencies --   1678.7950              3064.0961              3064.4612
 Red. masses --      6.0337                 1.0380                 1.0381
 Frc consts  --     10.0191                 5.7418                 5.7436
 IR Inten    --      2.8866                29.8761                14.7881

                     67                     68                     69
                      A                      A                      A
 Frequencies --   3126.5908              3126.6479              3150.4703
 Red. masses --      1.0980                 1.0981                 1.1030
 Frc consts  --      6.3243                 6.3248                 6.4502
 IR Inten    --      1.4184                20.2906                 5.5793

                     70                     71                     72
                      A                      A                      A
 Frequencies --   3150.6529              3180.8790              3194.7144
 Red. masses --      1.1029                 1.0903                 1.0901
 Frc consts  --      6.4506                 6.4995                 6.5549
 IR Inten    --     13.3094                13.6071                 6.5834

                     73                     74                     75
                      A                      A                      A
 Frequencies --   3195.5908              3199.5693              3204.1503
 Red. masses --      1.0899                 1.0858                 1.0877
 Frc consts  --      6.5574                 6.5491                 6.5794
 IR Inten    --      4.7021                 1.1405                 0.1700

                     76                     77                     78
                      A                      A                      A
 Frequencies --   3212.4639              3219.2235              3228.9258
 Red. masses --      1.0912                 1.0948                 1.0986
 Frc consts  --      6.6349                 6.6845                 6.7485
 IR Inten    --      4.6414                16.2684                11.1800

 - Thermochemistry -
 -------------------
 Temperature   298.150 Kelvin.  Pressure   1.00000 Atm.
 Atom     1 has atomic number  6 and mass  12.00000

 Molecular mass:   182.10955 amu.
 Principal axes and moments of inertia in atomic units:
                           1         2         3
     Eigenvalues --  1326.153234444.587985544.04177
           X            1.00000  -0.00000  -0.00000
           Y            0.00000   1.00000  -0.00126
           Z            0.00000   0.00126   1.00000
 This molecule is an asymmetric top.
 Rotational symmetry number  1.
 Warning -- assumption of classical behavior for rotation
           may cause significant error
 Rotational temperatures (Kelvin)      0.06531     0.01949     0.01562
 Rotational constants (GHZ):           1.36088     0.40605     0.32553
 Zero-point vibrational energy     624135.2 (Joules/Mol)
                                  149.17189 (Kcal/Mol)
 Warning -- explicit consideration of  18 degrees of freedom as
           vibrations may cause significant error
 Vibrational temperatures:     53.26    77.71    83.66   121.39   151.44
          (Kelvin)            281.00   334.70   361.27   370.07   466.78
                              471.11   603.13   642.74   741.90   763.14
                              789.28   797.73   871.80   913.91   953.11
                             1041.32  1046.22  1140.51  1258.85  1263.78
                             1276.66  1318.42  1339.24  1373.40  1410.67
                             1436.15  1450.41  1461.52  1467.12  1473.41
                             1492.96  1532.20  1534.24  1535.88  1603.12
                             1615.35  1694.85  1726.86  1738.17  1785.76
                             1846.44  1887.35  1919.56  1951.46  1962.20
                             2030.79  2039.93  2107.43  2111.33  2146.77
                             2147.59  2148.39  2181.39  2185.37  2230.27
                             2374.01  2407.68  2408.50  2415.41  4408.55
                             4409.08  4498.47  4498.55  4532.82  4533.09
                             4576.58  4596.48  4597.74  4603.47  4610.06
                             4622.02  4631.74  4645.70

 Zero-point correction=                           0.237721 (Hartree/Particle)
 Thermal correction to Energy=                    0.250306
 Thermal correction to Enthalpy=                  0.251250
 Thermal correction to Gibbs Free Energy=         0.197440
 Sum of electronic and zero-point Energies=           -541.651131
 Sum of electronic and thermal Energies=              -541.638546
 Sum of electronic and thermal Enthalpies=            -541.637602
 Sum of electronic and thermal Free Energies=         -541.691412

                     E (Thermal)             CV                S
                      KCal/Mol        Cal/Mol-Kelvin    Cal/Mol-Kelvin
 Total                  157.069             48.177            113.253
 Electronic               0.000              0.000              0.000
 Translational            0.889              2.981             41.505
 Rotational               0.889              2.981             31.858
 Vibrational            155.292             42.215             39.890
 Vibration     1          0.594              1.982              5.412
 Vibration     2          0.596              1.976              4.665
 Vibration     3          0.596              1.974              4.519
 Vibration     4          0.601              1.960              3.787
 Vibration     5          0.605              1.945              3.355
 Vibration     6          0.636              1.846              2.177
 Vibration     7          0.653              1.791              1.859
 Vibration     8          0.663              1.761              1.723
 Vibration     9          0.667              1.751              1.681
 Vibration    10          0.709              1.627              1.288
 Vibration    11          0.711              1.621              1.273
 Vibration    12          0.782              1.429              0.895
 Vibration    13          0.806              1.368              0.806
 Vibration    14          0.871              1.215              0.620
 Vibration    15          0.885              1.183              0.586
 Vibration    16          0.904              1.143              0.547
 Vibration    17          0.910              1.130              0.535
 Vibration    18          0.965              1.019              0.440

 Optimization completed.
    -- Stationary point found.
 Normal termination of Gaussian 16 at Tue Nov 14 03:15:50 2023.
