 Gaussian 16, Revision C.01,
 Gaussian 16:  ES64L-G16RevC.01  3-Jul-2019

 -----------------------------------------
 # opt freq=noraman m062x def2tzvp pop=nbo
 -----------------------------------------

 ------------
 Structure697
 ------------
 Symbolic Z-matrix:
 Charge =  0 Multiplicity = 1

 SCF Done:  E(RM062X) =  -581.196124330     A.U. after   13 cycles
 SCF Done:  E(RM062X) =  -581.198341434     A.U. after   13 cycles
 SCF Done:  E(RM062X) =  -581.198520751     A.U. after   13 cycles
 SCF Done:  E(RM062X) =  -581.198550517     A.U. after   12 cycles
 SCF Done:  E(RM062X) =  -581.198554182     A.U. after   11 cycles
 SCF Done:  E(RM062X) =  -581.198554995     A.U. after    7 cycles
 Optimization completed.
    -- Stationary point found.
 Normal termination of Gaussian 16 at Wed Nov  8 09:34:11 2023.

 --------------------------------------------------------------------
 #N Geom=AllCheck Guess=TCheck SCRF=Check GenChk RM062X/def2TZVP Freq
 --------------------------------------------------------------------

 Structure from the checkpoint file:  "ph_345me_1_1_m062x.chk"
 ------------
 Structure697
 ------------
 Charge =  0 Multiplicity = 1

                         Standard orientation:
 ---------------------------------------------------------------------
 Center     Atomic      Atomic             Coordinates (Angstroms)
 Number     Number       Type             X           Y           Z
 ---------------------------------------------------------------------
      1          6           0        2.407683   -1.026209   -0.618618
      2          6           0        3.794263   -1.027260   -0.617840
      3          6           0        4.493258   -0.000094    0.001024
      4          6           0        3.793654    1.027406    0.618724
      5          6           0        2.407103    1.027174    0.616998
      6          6           0        1.692460    0.000729   -0.001550
      7          1           0        5.575424   -0.000355    0.002008
      8          1           0        1.867890    1.819061    1.121919
      9          1           0        4.330743   -1.828725   -1.109417
     10          1           0        1.868657   -1.817852   -1.124154
     11          6           0       -2.600708   -0.002746   -0.015567
     12          6           0       -1.894435    1.196543   -0.170511
     13          6           0       -0.505152    1.182061   -0.162913
     14          6           0        0.211633    0.000346   -0.003353
     15          6           0       -0.504031   -1.181503    0.160878
     16          6           0       -1.893288   -1.198301    0.161582
     17          1           0        0.031323    2.112718   -0.308307
     18          1           0        0.033518   -2.108934    0.322047
     19          1           0        4.329692    1.828489    1.111406
     20          6           0       -2.618401   -2.501380    0.368800
     21          1           0       -1.915277   -3.301509    0.593617
     22          1           0       -3.331903   -2.434549    1.192273
     23          1           0       -3.181051   -2.790237   -0.521997
     24          6           0       -2.620763    2.503402   -0.347125
     25          1           0       -1.918871    3.335506   -0.357537
     26          1           0       -3.180180    2.525490   -1.285211
     27          1           0       -3.337307    2.673014    0.458831
     28          6           0       -4.106283   -0.001987   -0.007511
     29          1           0       -4.511271   -0.943739   -0.373379
     30          1           0       -4.492255    0.145572    1.005998
     31          1           0       -4.511101    0.796950   -0.626208
 ---------------------------------------------------------------------

 SCF Done:  E(RM062X) =  -581.198554995     A.U. after    1 cycles

 The electronic state is 1-A.
 Alpha  occ. eigenvalues --  -10.54754 -10.54311 -10.54300 -10.54230 -10.54080
 Alpha  occ. eigenvalues --  -10.53862 -10.53844 -10.53716 -10.53704 -10.53683
 Alpha  occ. eigenvalues --  -10.53031 -10.53028 -10.53007 -10.53001 -10.52997
 Alpha  occ. eigenvalues --   -0.97703  -0.95676  -0.89092  -0.88079  -0.84167
 Alpha  occ. eigenvalues --   -0.83526  -0.80492  -0.76970  -0.75778  -0.69111
 Alpha  occ. eigenvalues --   -0.68887  -0.64925  -0.63970  -0.59472  -0.55875
 Alpha  occ. eigenvalues --   -0.54961  -0.52738  -0.51477  -0.50854  -0.49136
 Alpha  occ. eigenvalues --   -0.48590  -0.48094  -0.47168  -0.46481  -0.46400
 Alpha  occ. eigenvalues --   -0.46079  -0.45591  -0.44043  -0.43211  -0.41455
 Alpha  occ. eigenvalues --   -0.40922  -0.40033  -0.38253  -0.38126  -0.32141
 Alpha  occ. eigenvalues --   -0.30691  -0.29042  -0.26775
 Alpha virt. eigenvalues --    0.00048   0.02325   0.03184   0.05642   0.06298
 Alpha virt. eigenvalues --    0.08617   0.08692   0.09901   0.10703   0.12541
 Alpha virt. eigenvalues --    0.12627   0.12955   0.13246   0.13791   0.14580

 Mulliken charges:
               1
     1  C   -0.213695
     2  C   -0.151015
     3  C   -0.150795
     4  C   -0.151254
     5  C   -0.214499
     6  C    0.099970
     7  H    0.141045
     8  H    0.164153
     9  H    0.141321
    10  H    0.164841
    11  C    0.038178
    12  C    0.141221
    13  C   -0.276147
    14  C    0.128918
    15  C   -0.279710
    16  C    0.138564
    17  H    0.164195
    18  H    0.164012
    19  H    0.141269
    20  C   -0.541461
    21  H    0.139849
    22  H    0.165852
    23  H    0.166300
    24  C   -0.541388
    25  H    0.139477
    26  H    0.166609
    27  H    0.165762
    28  C   -0.535574
    29  H    0.152043
    30  H    0.179805
    31  H    0.152156
 Sum of Mulliken charges =  -0.00000

 Dipole moment (field-independent basis, Debye):
    X=             -0.9576    Y=              0.0052    Z=              0.0358  Tot=              0.9582
 Quadrupole moment (field-independent basis, Debye-Ang):
   XX=            -80.4650   YY=            -83.8213   ZZ=            -93.9903
   XY=             -0.0207   XZ=             -0.0649   YZ=              2.4035

  Exact polarizability:     249.402      -0.096     172.398      -0.344       7.423     107.554
 Approx polarizability:     273.396      -0.096     231.025      -0.232      14.308     153.938

 Summary of Natural Population Analysis:

                                       Natural Population
                Natural  -----------------------------------------------
    Atom  No    Charge         Core      Valence    Rydberg      Total
 -----------------------------------------------------------------------
      C    1   -0.19856      1.99914     4.18146    0.01795     6.19856
      C    2   -0.20497      1.99923     4.18732    0.01842     6.20497
      C    3   -0.21634      1.99922     4.19859    0.01853     6.21634
      C    4   -0.20497      1.99923     4.18731    0.01842     6.20497
      C    5   -0.19854      1.99914     4.18145    0.01795     6.19854
      C    6   -0.04416      1.99910     4.02507    0.01999     6.04416
      H    7    0.21254      0.00000     0.78644    0.00102     0.78746
      H    8    0.21363      0.00000     0.78521    0.00116     0.78637
      H    9    0.21239      0.00000     0.78658    0.00103     0.78761
      H   10    0.21382      0.00000     0.78502    0.00116     0.78618
      C   11   -0.02025      1.99900     4.00715    0.01409     6.02025
      C   12   -0.00618      1.99909     3.98998    0.01712     6.00618
      C   13   -0.19800      1.99905     4.18341    0.01554     6.19800
      C   14   -0.04516      1.99909     4.02751    0.01856     6.04516
      C   15   -0.19819      1.99905     4.18360    0.01554     6.19819
      C   16   -0.00617      1.99909     3.98996    0.01712     6.00617
      H   17    0.20527      0.00000     0.79242    0.00231     0.79473
      H   18    0.20536      0.00000     0.79234    0.00231     0.79464
      H   19    0.21237      0.00000     0.78660    0.00103     0.78763
      C   20   -0.62180      1.99945     4.61065    0.01169     6.62180
      H   21    0.21519      0.00000     0.78396    0.00084     0.78481
      H   22    0.21512      0.00000     0.78372    0.00116     0.78488
      H   23    0.21488      0.00000     0.78392    0.00120     0.78512
      C   24   -0.62175      1.99945     4.61061    0.01168     6.62175
      H   25    0.21501      0.00000     0.78415    0.00084     0.78499
      H   26    0.21503      0.00000     0.78374    0.00123     0.78497
      H   27    0.21509      0.00000     0.78377    0.00114     0.78491
      C   28   -0.63393      1.99946     4.62115    0.01332     6.63393
      H   29    0.21694      0.00000     0.78198    0.00109     0.78306
      H   30    0.21920      0.00000     0.77931    0.00149     0.78080
      H   31    0.21712      0.00000     0.78178    0.00110     0.78288
 =======================================================================
   * Total *    0.00000     29.98780    75.74616    0.26603   106.00000

 ******    1 imaginary frequencies (negative Signs) ******

                      1                      2                      3
                      A                      A                      A
 Frequencies --    -33.9281                57.9196                70.6514
 Red. masses --      1.0702                 3.5928                 3.6935
 Frc consts  --      0.0007                 0.0071                 0.0109
 IR Inten    --      0.0649                 0.0061                 0.9418

                      4                      5                      6
                      A                      A                      A
 Frequencies --     98.4164               134.9987               197.6468
 Red. masses --      3.8590                 2.7341                 1.2092
 Frc consts  --      0.0220                 0.0294                 0.0278
 IR Inten    --      0.2142                 0.6273                 0.6396

                      7                      8                      9
                      A                      A                      A
 Frequencies --    199.8371               233.9034               242.8470
 Red. masses --      1.1810                 2.4805                 2.4525
 Frc consts  --      0.0278                 0.0800                 0.0852
 IR Inten    --      0.4441                 0.6281                 0.1051

                     10                     11                     12
                      A                      A                      A
 Frequencies --    267.9333               297.0356               331.7390
 Red. masses --      4.1296                 3.5497                 3.1397
 Frc consts  --      0.1747                 0.1845                 0.2036
 IR Inten    --      0.1289                 1.2144                 0.4461

                     13                     14                     15
                      A                      A                      A
 Frequencies --    370.6573               378.0619               419.2731
 Red. masses --      2.8007                 2.9857                 2.9369
 Frc consts  --      0.2267                 0.2514                 0.3042
 IR Inten    --      0.5883                 0.5745                 0.1102

                     16                     17                     18
                      A                      A                      A
 Frequencies --    479.3437               513.1675               531.1530
 Red. masses --      3.1627                 4.7419                 3.0504
 Frc consts  --      0.4282                 0.7357                 0.5070
 IR Inten    --      3.6928                 1.0562                 0.1541

                     19                     20                     21
                      A                      A                      A
 Frequencies --    551.1758               564.9916               623.9114
 Red. masses --      5.0976                 2.8685                 4.0128
 Frc consts  --      0.9124                 0.5395                 0.9203
 IR Inten    --      0.8492                 5.3957                 0.9962

                     22                     23                     24
                      A                      A                      A
 Frequencies --    639.1808               653.4606               723.5221
 Red. masses --      4.9292                 5.6495                 1.7145
 Frc consts  --      1.1865                 1.4213                 0.5288
 IR Inten    --      0.9979                 3.9996                38.1019

                     25                     26                     27
                      A                      A                      A
 Frequencies --    739.9164               747.2709               792.6467
 Red. masses --      3.1365                 3.1101                 1.8439
 Frc consts  --      1.0117                 1.0232                 0.6826
 IR Inten    --      1.1584                 2.0533                42.6006

                     28                     29                     30
                      A                      A                      A
 Frequencies --    875.4975               907.8598               912.3951
 Red. masses --      1.2468                 3.9391                 1.6910
 Frc consts  --      0.5631                 1.9129                 0.8294
 IR Inten    --      0.1324                 4.1321                11.9440

                     31                     32                     33
                      A                      A                      A
 Frequencies --    915.3618               935.2697               960.7723
 Red. masses --      1.3021                 2.2007                 1.6124
 Frc consts  --      0.6428                 1.1342                 0.8769
 IR Inten    --      0.8999                 0.1788                 1.1019

                     34                     35                     36
                      A                      A                      A
 Frequencies --    997.7930              1013.5616              1016.7779
 Red. masses --      1.3715                 1.3120                 1.5267
 Frc consts  --      0.8045                 0.7941                 0.9300
 IR Inten    --      0.4170                 1.8612                 4.4395

                     37                     38                     39
                      A                      A                      A
 Frequencies --   1017.1337              1022.0741              1033.6288
 Red. masses --      1.4015                 5.7337                 1.4121
 Frc consts  --      0.8543                 3.5290                 0.8889
 IR Inten    --      4.3250                 0.1632                 5.1424

                     40                     41                     42
                      A                      A                      A
 Frequencies --   1063.1151              1065.8062              1076.4488
 Red. masses --      1.5602                 2.1517                 1.7076
 Frc consts  --      1.0389                 1.4401                 1.1658
 IR Inten    --      0.7682                 2.7027                 2.5301

                     43                     44                     45
                      A                      A                      A
 Frequencies --   1103.3491              1114.2823              1117.2186
 Red. masses --      1.9611                 1.5268                 2.0155
 Frc consts  --      1.4066                 1.1169                 1.4822
 IR Inten    --      1.8912                 4.2421                 3.6116

                     46                     47                     48
                      A                      A                      A
 Frequencies --   1177.8187              1204.0371              1208.3814
 Red. masses --      1.1481                 3.1068                 1.2623
 Frc consts  --      0.9384                 2.6536                 1.0860
 IR Inten    --      0.0012                 1.1921                 1.0833

                     49                     50                     51
                      A                      A                      A
 Frequencies --   1260.4829              1279.1877              1302.5534
 Red. masses --      1.7343                 1.6016                 2.9467
 Frc consts  --      1.6235                 1.5441                 2.9456
 IR Inten    --      0.0110                 0.1844                 0.0458

                     52                     53                     54
                      A                      A                      A
 Frequencies --   1312.5918              1355.7117              1364.1069
 Red. masses --      5.2890                 1.4795                 3.6704
 Frc consts  --      5.3689                 1.6021                 4.0240
 IR Inten    --      0.4810                 0.8448                 2.0182

                     55                     56                     57
                      A                      A                      A
 Frequencies --   1410.8637              1412.8805              1421.4115
 Red. masses --      1.3603                 1.2438                 1.2981
 Frc consts  --      1.5953                 1.4629                 1.5453
 IR Inten    --      0.1205                 1.8413                 0.9491

                     58                     59                     60
                      A                      A                      A
 Frequencies --   1451.5661              1473.8593              1477.4173
 Red. masses --      2.6677                 1.2601                 1.0881
 Frc consts  --      3.3118                 1.6127                 1.3994
 IR Inten    --      2.6194                 1.8538                 2.7711

                     61                     62                     63
                      A                      A                      A
 Frequencies --   1490.5240              1493.7333              1499.3379
 Red. masses --      1.0500                 1.5622                 1.0616
 Frc consts  --      1.3745                 2.0537                 1.4061
 IR Inten    --     16.2923                 9.4647                 0.5426

                     64                     65                     66
                      A                      A                      A
 Frequencies --   1510.0243              1511.6776              1528.4910
 Red. masses --      1.5899                 1.1279                 2.0030
 Frc consts  --      2.1359                 1.5186                 2.7572
 IR Inten    --     12.0804                 5.7789                52.1169

                     67                     68                     69
                      A                      A                      A
 Frequencies --   1555.6965              1640.7540              1658.2488
 Red. masses --      2.8301                 6.1641                 6.8959
 Frc consts  --      4.0355                 9.7771                11.1722
 IR Inten    --      0.0095                16.5384                 2.7068

                     70                     71                     72
                      A                      A                      A
 Frequencies --   1678.3583              1682.0466              3054.7890
 Red. masses --      6.0535                 6.3439                 1.0491
 Frc consts  --     10.0468                10.5750                 5.7681
 IR Inten    --     15.1137                 3.8245                26.4875

                     73                     74                     75
                      A                      A                      A
 Frequencies --   3059.7629              3060.3963              3115.5029
 Red. masses --      1.0381                 1.0382                 1.0994
 Frc consts  --      5.7264                 5.7291                 6.2874
 IR Inten    --     26.7718                15.5348                22.0762

                     76                     77                     78
                      A                      A                      A
 Frequencies --   3115.8939              3129.3308              3151.3875
 Red. masses --      1.0999                 1.0862                 1.1009
 Frc consts  --      6.2916                 6.2668                 6.4420
 IR Inten    --      2.4310                10.2816                15.8153

                     79                     80                     81
                      A                      A                      A
 Frequencies --   3152.2293              3162.0713              3193.9878
 Red. masses --      1.1006                 1.1016                 1.0900
 Frc consts  --      6.4436                 6.4897                 6.5514
 IR Inten    --     12.5086                 6.1138                 7.9078

                     82                     83                     84
                      A                      A                      A
 Frequencies --   3195.1750              3199.0079              3203.5110
 Red. masses --      1.0897                 1.0858                 1.0877
 Frc consts  --      6.5545                 6.5469                 6.5766
 IR Inten    --      7.9764                 0.9377                 0.2608

                     85                     86                     87
                      A                      A                      A
 Frequencies --   3212.0177              3218.5948              3228.5472
 Red. masses --      1.0912                 1.0947                 1.0986
 Frc consts  --      6.6328                 6.6817                 6.7467
 IR Inten    --      4.3103                17.0445                12.1314

 - Thermochemistry -
 -------------------
 Temperature   298.150 Kelvin.  Pressure   1.00000 Atm.
 Atom     1 has atomic number  6 and mass  12.00000

 Molecular mass:   196.12520 amu.
 Principal axes and moments of inertia in atomic units:
                           1         2         3
     Eigenvalues --  1342.710285437.479536540.50323
           X            1.00000  -0.00004  -0.00014
           Y            0.00004   1.00000   0.00063
           Z            0.00014  -0.00063   1.00000
 This molecule is an asymmetric top.
 Rotational symmetry number  1.
 Warning -- assumption of classical behavior for rotation
           may cause significant error
 Rotational temperatures (Kelvin)      0.06451     0.01593     0.01324
 Rotational constants (GHZ):           1.34410     0.33191     0.27593
    1 imaginary frequencies ignored.
 Zero-point vibrational energy     698756.6 (Joules/Mol)
                                  167.00683 (Kcal/Mol)
 Warning -- explicit consideration of  19 degrees of freedom as
           vibrations may cause significant error
 Vibrational temperatures:     83.33   101.65   141.60   194.23   284.37
          (Kelvin)            287.52   336.53   349.40   385.50   427.37
                              477.30   533.29   543.95   603.24   689.67
                              738.33   764.21   793.02   812.90   897.67
                              919.64   940.18  1040.99  1064.57  1075.16
                             1140.44  1259.65  1306.21  1312.73  1317.00
                             1345.64  1382.34  1435.60  1458.29  1462.92
                             1463.43  1470.54  1487.16  1529.59  1533.46
                             1548.77  1587.47  1603.20  1607.43  1694.62
                             1732.34  1738.59  1813.55  1840.47  1874.08
                             1888.53  1950.57  1962.65  2029.92  2032.82
                             2045.09  2088.48  2120.55  2125.67  2144.53
                             2149.15  2157.21  2172.59  2174.97  2199.16
                             2238.30  2360.68  2385.85  2414.78  2420.09
                             4395.16  4402.32  4403.23  4482.51  4483.08
                             4502.41  4534.14  4535.35  4549.52  4595.44
                             4597.14  4602.66  4609.14  4621.38  4630.84
                             4645.16

 Zero-point correction=                           0.266142 (Hartree/Particle)
 Thermal correction to Energy=                    0.279039
 Thermal correction to Enthalpy=                  0.279984
 Thermal correction to Gibbs Free Energy=         0.226986
 Sum of electronic and zero-point Energies=           -580.932413
 Sum of electronic and thermal Energies=              -580.919516
 Sum of electronic and thermal Enthalpies=            -580.918571
 Sum of electronic and thermal Free Energies=         -580.971569

                     E (Thermal)             CV                S
                      KCal/Mol        Cal/Mol-Kelvin    Cal/Mol-Kelvin
 Total                  175.100             51.717            111.543
 Electronic               0.000              0.000              0.000
 Translational            0.889              2.981             41.726
 Rotational               0.889              2.981             32.235
 Vibrational            173.322             45.755             37.582
 Vibration     1          0.596              1.974              4.527
 Vibration     2          0.598              1.968              4.135
 Vibration     3          0.604              1.950              3.485
 Vibration     4          0.613              1.918              2.874
 Vibration     5          0.637              1.843              2.155
 Vibration     6          0.638              1.840              2.135
 Vibration     7          0.654              1.789              1.849
 Vibration     8          0.659              1.775              1.782
 Vibration     9          0.673              1.732              1.610
 Vibration    10          0.691              1.679              1.434
 Vibration    11          0.714              1.612              1.252
 Vibration    12          0.743              1.532              1.077
 Vibration    13          0.748              1.517              1.047
 Vibration    14          0.782              1.428              0.894
 Vibration    15          0.836              1.296              0.712
 Vibration    16          0.868              1.221              0.626
 Vibration    17          0.886              1.181              0.585
 Vibration    18          0.906              1.137              0.542
 Vibration    19          0.921              1.107              0.514

                           ! Non-Optimized Parameters !
 Normal termination of Gaussian 16 at Wed Nov  8 10:37:12 2023.
