 Gaussian 16, Revision C.01,
 Gaussian 16:  ES64L-G16RevC.01  3-Jul-2019

 -----------------------------------------
 # opt freq=noraman m062x def2tzvp pop=nbo
 -----------------------------------------

 ------------
 Structure697
 ------------
 Symbolic Z-matrix:
 Charge =  0 Multiplicity = 1

 SCF Done:  E(RM062X) =  -699.115534775     A.U. after   14 cycles
 SCF Done:  E(RM062X) =  -699.117549205     A.U. after   15 cycles
 SCF Done:  E(RM062X) =  -699.117644284     A.U. after   13 cycles
 SCF Done:  E(RM062X) =  -699.117652668     A.U. after    8 cycles
 SCF Done:  E(RM062X) =  -699.117653404     A.U. after    7 cycles
 SCF Done:  E(RM062X) =  -699.117653984     A.U. after    7 cycles
 SCF Done:  E(RM062X) =  -699.117654276     A.U. after   13 cycles
 SCF Done:  E(RM062X) =  -699.117654363     A.U. after    7 cycles
 SCF Done:  E(RM062X) =  -699.117654384     A.U. after    6 cycles
 Optimization completed.
    -- Stationary point found.
 Normal termination of Gaussian 16 at Tue Nov 14 05:50:48 2023.

 --------------------------------------------------------------------
 #N Geom=AllCheck Guess=TCheck SCRF=Check GenChk RM062X/def2TZVP Freq
 --------------------------------------------------------------------

 Structure from the checkpoint file:  "ph_35pr_41_1_m062x.chk"
 ------------
 Structure697
 ------------
 Charge =  0 Multiplicity = 1

                         Standard orientation:
 ---------------------------------------------------------------------
 Center     Atomic      Atomic             Coordinates (Angstroms)
 Number     Number       Type             X           Y           Z
 ---------------------------------------------------------------------
      1          6           0       -2.969262    0.676803    0.989074
      2          6           0       -4.355845    0.676539    0.990118
      3          6           0       -5.054868   -0.000118    0.000008
      4          6           0       -4.355819   -0.676747   -0.990105
      5          6           0       -2.969237   -0.676952   -0.989064
      6          6           0       -2.255059   -0.000059    0.000004
      7          1           0       -6.137038   -0.000141    0.000009
      8          1           0       -2.429671   -1.187407   -1.777184
      9          1           0       -4.892309    1.200208    1.770977
     10          1           0       -2.429717    1.187281    1.777193
     11          6           0        2.007775    0.000032   -0.000007
     12          6           0        1.327480   -1.165846   -0.336584
     13          6           0       -0.062497   -1.151383   -0.333763
     14          6           0       -0.773374   -0.000027    0.000001
     15          6           0       -0.062544    1.151357    0.333760
     16          6           0        1.327434    1.165879    0.336573
     17          1           0       -0.602960   -2.061539   -0.570643
     18          1           0       -0.603045    2.061490    0.570643
     19          1           0       -4.892263   -1.200438   -1.770961
     20          1           0        3.093985    0.000055   -0.000011
     21          6           0        2.079912   -2.436279   -0.626894
     22          1           0        1.511076   -3.050388   -1.330206
     23          1           0        3.032027   -2.199252   -1.109535
     24          6           0        2.079806    2.436348    0.626879
     25          1           0        1.510997    3.050379    1.330282
     26          1           0        3.031985    2.199362    1.109413
     27          6           0        2.350930   -3.249504    0.641726
     28          1           0        2.912567   -2.629243    1.345257
     29          1           0        1.397383   -3.476465    1.125674
     30          6           0        2.350640    3.249662   -0.641723
     31          1           0        2.912253    2.629479   -1.345343
     32          1           0        1.397030    3.476580   -1.125566
     33          6           0        3.112224   -4.535670    0.351601
     34          1           0        3.297759   -5.104032    1.263189
     35          1           0        2.550883   -5.174362   -0.333139
     36          1           0        4.077067   -4.321134   -0.112100
     37          6           0        3.111869    4.535868   -0.351603
     38          1           0        3.297273    5.104292   -1.263179
     39          1           0        2.550549    5.174482    0.333227
     40          1           0        4.076774    4.321377    0.111991
 ---------------------------------------------------------------------

 SCF Done:  E(RM062X) =  -699.117654384     A.U. after    1 cycles

 The electronic state is 1-A.
 Alpha  occ. eigenvalues --  -10.54925 -10.54712 -10.54314 -10.54313 -10.54018
 Alpha  occ. eigenvalues --  -10.54000 -10.53889 -10.53879 -10.53848 -10.53328
 Alpha  occ. eigenvalues --  -10.53328 -10.53252 -10.53249 -10.53169 -10.53040
 Alpha  occ. eigenvalues --  -10.53040 -10.52188 -10.52188  -0.97814  -0.95728
 Alpha  occ. eigenvalues --   -0.90817  -0.89558  -0.86580  -0.84599  -0.84047
 Alpha  occ. eigenvalues --   -0.81644  -0.77126  -0.76551  -0.70798  -0.69487
 Alpha  occ. eigenvalues --   -0.67937  -0.67709  -0.64741  -0.63991  -0.59642
 Alpha  occ. eigenvalues --   -0.56671  -0.55916  -0.53671  -0.52959  -0.52052
 Alpha  occ. eigenvalues --   -0.50771  -0.50240  -0.49627  -0.48661  -0.48553
 Alpha  occ. eigenvalues --   -0.48372  -0.47551  -0.44880  -0.44760  -0.43908
 Alpha  occ. eigenvalues --   -0.43242  -0.42894  -0.42088  -0.41589  -0.40458
 Alpha  occ. eigenvalues --   -0.40167  -0.39353  -0.39206  -0.38919  -0.37876
 Alpha  occ. eigenvalues --   -0.37527  -0.32646  -0.30849  -0.29045  -0.27477
 Alpha virt. eigenvalues --   -0.00167   0.02153   0.02617   0.05443   0.06157
 Alpha virt. eigenvalues --    0.07215   0.08470   0.09418   0.09507   0.09733
 Alpha virt. eigenvalues --    0.10689   0.11734   0.11820   0.12533   0.12543

 Mulliken charges:
               1
     1  C   -0.214059
     2  C   -0.152138
     3  C   -0.148535
     4  C   -0.152138
     5  C   -0.214059
     6  C    0.101996
     7  H    0.141572
     8  H    0.166197
     9  H    0.142196
    10  H    0.166197
    11  C   -0.246683
    12  C    0.180947
    13  C   -0.279690
    14  C    0.131414
    15  C   -0.279693
    16  C    0.180950
    17  H    0.176415
    18  H    0.176416
    19  H    0.142196
    20  H    0.154729
    21  C   -0.448064
    22  H    0.157114
    23  H    0.157637
    24  C   -0.448064
    25  H    0.157117
    26  H    0.157633
    27  C   -0.222362
    28  H    0.138946
    29  H    0.141462
    30  C   -0.222362
    31  H    0.138946
    32  H    0.141463
    33  C   -0.426947
    34  H    0.142505
    35  H    0.136705
    36  H    0.135890
    37  C   -0.426947
    38  H    0.142505
    39  H    0.136705
    40  H    0.135890
 Sum of Mulliken charges =  -0.00000

 Dipole moment (field-independent basis, Debye):
    X=              0.4575    Y=              0.0000    Z=             -0.0000  Tot=              0.4575
 Quadrupole moment (field-independent basis, Debye-Ang):
   XX=           -102.1907   YY=           -107.2102   ZZ=           -111.1483
   XY=              0.0001   XZ=             -0.0002   YZ=              4.5747

  Exact polarizability:     270.687       0.001     215.778       0.000      20.232     154.714
 Approx polarizability:     307.060       0.001     251.506      -0.001      36.294     218.587

 Summary of Natural Population Analysis:

                                       Natural Population
                Natural  -----------------------------------------------
    Atom  No    Charge         Core      Valence    Rydberg      Total
 -----------------------------------------------------------------------
      C    1   -0.19783      1.99914     4.18081    0.01787     6.19783
      C    2   -0.20480      1.99923     4.18718    0.01839     6.20480
      C    3   -0.21508      1.99922     4.19740    0.01846     6.21508
      C    4   -0.20480      1.99923     4.18718    0.01839     6.20480
      C    5   -0.19783      1.99914     4.18081    0.01787     6.19783
      C    6   -0.04681      1.99910     4.02760    0.02011     6.04681
      H    7    0.21288      0.00000     0.78611    0.00101     0.78712
      H    8    0.21424      0.00000     0.78461    0.00115     0.78576
      H    9    0.21280      0.00000     0.78618    0.00103     0.78720
      H   10    0.21424      0.00000     0.78461    0.00115     0.78576
      C   11   -0.21635      1.99902     4.20014    0.01719     6.21635
      C   12    0.00245      1.99915     3.98010    0.01830     5.99755
      C   13   -0.21024      1.99903     4.19519    0.01601     6.21024
      C   14   -0.03402      1.99911     4.01596    0.01895     6.03402
      C   15   -0.21024      1.99903     4.19519    0.01601     6.21024
      C   16    0.00245      1.99915     3.98010    0.01830     5.99755
      H   17    0.20769      0.00000     0.79029    0.00202     0.79231
      H   18    0.20769      0.00000     0.79029    0.00202     0.79231
      H   19    0.21280      0.00000     0.78618    0.00103     0.78720
      H   20    0.20294      0.00000     0.79555    0.00151     0.79706
      C   21   -0.40930      1.99939     4.39657    0.01335     6.40930
      H   22    0.20284      0.00000     0.79498    0.00218     0.79716
      H   23    0.20306      0.00000     0.79495    0.00199     0.79694
      C   24   -0.40930      1.99939     4.39657    0.01335     6.40930
      H   25    0.20284      0.00000     0.79497    0.00218     0.79716
      H   26    0.20306      0.00000     0.79495    0.00199     0.79694
      C   27   -0.38071      1.99948     4.36802    0.01321     6.38071
      H   28    0.19873      0.00000     0.79996    0.00131     0.80127
      H   29    0.20006      0.00000     0.79870    0.00124     0.79994
      C   30   -0.38071      1.99948     4.36802    0.01321     6.38071
      H   31    0.19873      0.00000     0.79996    0.00131     0.80127
      H   32    0.20006      0.00000     0.79870    0.00124     0.79994
      C   33   -0.59735      1.99951     4.59185    0.00599     6.59735
      H   34    0.20864      0.00000     0.79038    0.00098     0.79136
      H   35    0.19916      0.00000     0.79959    0.00125     0.80084
      H   36    0.19879      0.00000     0.79995    0.00126     0.80121
      C   37   -0.59735      1.99951     4.59185    0.00599     6.59735
      H   38    0.20864      0.00000     0.79038    0.00098     0.79136
      H   39    0.19916      0.00000     0.79959    0.00125     0.80084
      H   40    0.19879      0.00000     0.79995    0.00126     0.80121
 =======================================================================
   * Total *    0.00000     35.98630    93.70138    0.31232   130.00000

                      1                      2                      3
                      A                      A                      A
 Frequencies --     23.1324                26.2651                48.8093
 Red. masses --      3.0524                 2.8387                 3.6377
 Frc consts  --      0.0010                 0.0012                 0.0051
 IR Inten    --      0.0320                 0.0133                 0.0013

                      4                      5                      6
                      A                      A                      A
 Frequencies --     51.9430                79.0256                82.7126
 Red. masses --      3.8983                 1.8709                 1.6346
 Frc consts  --      0.0062                 0.0069                 0.0066
 IR Inten    --      0.4766                 0.0063                 0.0179

                      7                      8                      9
                      A                      A                      A
 Frequencies --    107.6413               117.4891               118.6644
 Red. masses --      3.7615                 3.7946                 3.7128
 Frc consts  --      0.0257                 0.0309                 0.0308
 IR Inten    --      0.2463                 0.0008                 0.0385

                     10                     11                     12
                      A                      A                      A
 Frequencies --    237.5584               241.5275               252.7387
 Red. masses --      1.3401                 1.2925                 2.4407
 Frc consts  --      0.0446                 0.0444                 0.0919
 IR Inten    --      0.0406                 0.0193                 0.0729

                     13                     14                     15
                      A                      A                      A
 Frequencies --    259.5633               276.5216               285.1580
 Red. masses --      2.1716                 2.9725                 2.9058
 Frc consts  --      0.0862                 0.1339                 0.1392
 IR Inten    --      0.0294                 0.0097                 0.0250

                     16                     17                     18
                      A                      A                      A
 Frequencies --    285.8554               315.3604               352.1191
 Red. masses --      2.9853                 4.7267                 4.0552
 Frc consts  --      0.1437                 0.2770                 0.2962
 IR Inten    --      0.7995                 0.7363                 0.1771

                     19                     20                     21
                      A                      A                      A
 Frequencies --    353.2335               419.4403               447.0420
 Red. masses --      3.4823                 2.9473                 2.8769
 Frc consts  --      0.2560                 0.3055                 0.3387
 IR Inten    --      0.0038                 0.1323                 0.3552

                     22                     23                     24
                      A                      A                      A
 Frequencies --    544.0632               567.9674               576.4443
 Red. masses --      3.1451                 4.0103                 4.4257
 Frc consts  --      0.5485                 0.7622                 0.8665
 IR Inten    --      5.7012                 1.5685                 3.9538

                     25                     26                     27
                      A                      A                      A
 Frequencies --    632.1377               640.5481               649.1753
 Red. masses --      5.9772                 6.3683                 4.6156
 Frc consts  --      1.4072                 1.5395                 1.1461
 IR Inten    --      0.1776                 8.6585                 3.1424

                     28                     29                     30
                      A                      A                      A
 Frequencies --    708.2550               723.8481               742.0735
 Red. masses --      4.8445                 1.7159                 1.8372
 Frc consts  --      1.4318                 0.5297                 0.5961
 IR Inten    --      0.0156                36.9247                 9.9015

                     31                     32                     33
                      A                      A                      A
 Frequencies --    744.2963               746.4362               793.2742
 Red. masses --      1.0937                 1.1538                 1.8635
 Frc consts  --      0.3570                 0.3788                 0.6909
 IR Inten    --      1.9571                 2.5418                44.2027

                     34                     35                     36
                      A                      A                      A
 Frequencies --    866.3714               876.5826               882.5738
 Red. masses --      1.7301                 1.2475                 1.2846
 Frc consts  --      0.7651                 0.5648                 0.5895
 IR Inten    --      2.6483                 0.2216                 1.4340

                     37                     38                     39
                      A                      A                      A
 Frequencies --    886.8038               886.9639               915.5266
 Red. masses --      1.8108                 1.8286                 2.2316
 Frc consts  --      0.8390                 0.8476                 1.1021
 IR Inten    --     12.9673                 0.4601                 0.1100

                     40                     41                     42
                      A                      A                      A
 Frequencies --    928.4880               935.5512               935.9395
 Red. masses --      1.6012                 1.4253                 1.4050
 Frc consts  --      0.8133                 0.7350                 0.7251
 IR Inten    --      6.4280                 0.0851                 0.7617

                     43                     44                     45
                      A                      A                      A
 Frequencies --    958.3306               999.1437              1001.4758
 Red. masses --      1.5544                 1.3794                 3.2675
 Frc consts  --      0.8411                 0.8114                 1.9309
 IR Inten    --      1.2388                 0.2840                 0.6784

                     46                     47                     48
                      A                      A                      A
 Frequencies --   1016.0590              1019.3025              1023.8431
 Red. masses --      1.3111                 6.2314                 5.6565
 Frc consts  --      0.7975                 3.8146                 3.4936
 IR Inten    --      0.0460                 0.1091                 0.1166

                     49                     50                     51
                      A                      A                      A
 Frequencies --   1062.3056              1066.8492              1068.5521
 Red. masses --      2.4930                 2.4670                 2.4351
 Frc consts  --      1.6576                 1.6544                 1.6382
 IR Inten    --      3.9412                 0.0717                 1.1073

                     52                     53                     54
                      A                      A                      A
 Frequencies --   1082.3409              1101.1182              1114.6523
 Red. masses --      1.5274                 1.4467                 1.5183
 Frc consts  --      1.0543                 1.0335                 1.1115
 IR Inten    --      0.6644                 0.9725                 4.2220

                     55                     56                     57
                      A                      A                      A
 Frequencies --   1120.9065              1121.6869              1132.1244
 Red. masses --      2.2074                 2.2291                 1.6273
 Frc consts  --      1.6340                 1.6524                 1.2288
 IR Inten    --     12.3916                 4.4810                 1.5525

                     58                     59                     60
                      A                      A                      A
 Frequencies --   1178.1946              1197.1081              1208.9023
 Red. masses --      1.1533                 1.3689                 1.1290
 Frc consts  --      0.9433                 1.1558                 0.9721
 IR Inten    --      0.0010                 0.1730                 0.6024

                     61                     62                     63
                      A                      A                      A
 Frequencies --   1237.1088              1242.1365              1253.6740
 Red. masses --      1.7667                 1.6316                 1.3734
 Frc consts  --      1.5931                 1.4832                 1.2718
 IR Inten    --      0.8036                 0.0689                 0.1593

                     64                     65                     66
                      A                      A                      A
 Frequencies --   1294.3476              1303.7468              1307.2910
 Red. masses --      1.9223                 1.4199                 1.3781
 Frc consts  --      1.8975                 1.4220                 1.3877
 IR Inten    --      0.5634                 1.2593                 1.3162

                     67                     68                     69
                      A                      A                      A
 Frequencies --   1313.5247              1324.3104              1330.9712
 Red. masses --      2.2815                 1.1063                 1.4548
 Frc consts  --      2.3192                 1.1431                 1.5184
 IR Inten    --      0.0185                 1.0571                 0.3552

                     70                     71                     72
                      A                      A                      A
 Frequencies --   1333.5965              1357.7518              1365.6743
 Red. masses --      1.5916                 1.5209                 2.4596
 Frc consts  --      1.6677                 1.6519                 2.7028
 IR Inten    --      0.0380                 0.8802                 0.0000

                     73                     74                     75
                      A                      A                      A
 Frequencies --   1383.3796              1392.1880              1411.6838
 Red. masses --      1.5321                 2.2280                 1.2745
 Frc consts  --      1.7275                 2.5442                 1.4964
 IR Inten    --      1.2359                 0.0609                 3.5111

                     76                     77                     78
                      A                      A                      A
 Frequencies --   1411.7506              1472.2265              1486.8491
 Red. masses --      1.2744                 2.6517                 1.0842
 Frc consts  --      1.4965                 3.3863                 1.4122
 IR Inten    --      0.7949                 9.6921                 0.6617

                     79                     80                     81
                      A                      A                      A
 Frequencies --   1487.2762              1495.8676              1496.0738
 Red. masses --      1.0892                 1.0642                 1.0721
 Frc consts  --      1.4195                 1.4030                 1.4138
 IR Inten    --      0.0133                 0.3643                 0.0094

                     82                     83                     84
                      A                      A                      A
 Frequencies --   1498.8433              1500.5040              1504.7281
 Red. masses --      1.2678                 1.0519                 1.9265
 Frc consts  --      1.6781                 1.3954                 2.5700
 IR Inten    --     27.7799                 4.1150                 3.9003

                     85                     86                     87
                      A                      A                      A
 Frequencies --   1509.3355              1510.5672              1510.6781
 Red. masses --      2.2200                 1.0980                 1.2376
 Frc consts  --      2.9797                 1.4762                 1.6641
 IR Inten    --      9.2300                 0.7293                10.9633

                     88                     89                     90
                      A                      A                      A
 Frequencies --   1548.9807              1649.0584              1671.2929
 Red. masses --      2.6827                 5.6944                 6.5567
 Frc consts  --      3.7924                 9.1236                10.7905
 IR Inten    --     11.7027                 9.8995                29.5613

                     91                     92                     93
                      A                      A                      A
 Frequencies --   1671.8432              1678.8162              3052.5020
 Red. masses --      6.3715                 6.0204                 1.0589
 Frc consts  --     10.4926                 9.9973                 5.8132
 IR Inten    --     38.4881                 4.5341                 5.0204

                     94                     95                     96
                      A                      A                      A
 Frequencies --   3052.6669              3059.0826              3059.1094
 Red. masses --      1.0589                 1.0397                 1.0400
 Frc consts  --      5.8139                 5.7322                 5.7344
 IR Inten    --      2.0947                22.8167                 6.6552

                     97                     98                     99
                      A                      A                      A
 Frequencies --   3064.2499              3064.2680              3085.0632
 Red. masses --      1.0559                 1.0563                 1.1020
 Frc consts  --      5.8413                 5.8436                 6.1797
 IR Inten    --     22.8402                91.5440                 0.1676

                    100                    101                    102
                      A                      A                      A
 Frequencies --   3085.0781              3106.5563              3106.8501
 Red. masses --      1.1020                 1.1052                 1.1052
 Frc consts  --      6.1799                 6.2844                 6.2854
 IR Inten    --      0.1717                 4.0874                12.7418

                    103                    104                    105
                      A                      A                      A
 Frequencies --   3129.8111              3129.9332              3138.0929
 Red. masses --      1.1032                 1.1032                 1.1015
 Frc consts  --      6.3672                 6.3677                 6.3911
 IR Inten    --     18.6465                59.5482                 0.2062

                    106                    107                    108
                      A                      A                      A
 Frequencies --   3138.1037              3172.1062              3187.8249
 Red. masses --      1.1015                 1.0900                 1.0899
 Frc consts  --      6.3912                 6.4619                 6.5255
 IR Inten    --     49.7910                11.9921                 7.1751

                    109                    110                    111
                      A                      A                      A
 Frequencies --   3188.8885              3197.0469              3201.7796
 Red. masses --      1.0902                 1.0853                 1.0877
 Frc consts  --      6.5317                 6.5361                 6.5694
 IR Inten    --      2.9318                 3.0261                 0.0318

                    112                    113                    114
                      A                      A                      A
 Frequencies --   3211.3593              3216.4332              3227.1793
 Red. masses --      1.0913                 1.0948                 1.0985
 Frc consts  --      6.6310                 6.6735                 6.7404
 IR Inten    --      4.2642                15.7618                11.7621

 - Thermochemistry -
 -------------------
 Temperature   298.150 Kelvin.  Pressure   1.00000 Atm.
 Atom     1 has atomic number  6 and mass  12.00000

 Molecular mass:   238.17215 amu.
 Principal axes and moments of inertia in atomic units:
                           1         2         3
     Eigenvalues --  4660.387476873.93197**********
           X            1.00000  -0.00000   0.00000
           Y            0.00000   1.00000   0.00040
           Z           -0.00000  -0.00040   1.00000
 This molecule is an asymmetric top.
 Rotational symmetry number  1.
 Warning -- assumption of classical behavior for rotation
           may cause significant error
 Rotational temperatures (Kelvin)      0.01859     0.01260     0.00802
 Rotational constants (GHZ):           0.38725     0.26255     0.16721
 Zero-point vibrational energy     926316.8 (Joules/Mol)
                                  221.39503 (Kcal/Mol)
 Warning -- explicit consideration of  24 degrees of freedom as
           vibrations may cause significant error
 Vibrational temperatures:     33.28    37.79    70.23    74.73   113.70
          (Kelvin)            119.00   154.87   169.04   170.73   341.79
                              347.50   363.63   373.45   397.85   410.28
                              411.28   453.73   506.62   508.22   603.48
                              643.19   782.79   817.18   829.37   909.51
                              921.61   934.02  1019.02  1041.46  1067.68
                             1070.88  1073.96  1141.34  1246.52  1261.21
                             1269.83  1275.91  1276.14  1317.24  1335.89
                             1346.05  1346.61  1378.82  1437.54  1440.90
                             1461.88  1466.55  1473.08  1528.42  1534.96
                             1537.41  1557.25  1584.26  1603.74  1612.73
                             1613.86  1628.87  1695.16  1722.37  1739.34
                             1779.92  1787.16  1803.76  1862.28  1875.80
                             1880.90  1889.87  1905.39  1914.97  1918.75
                             1953.50  1964.90  1990.37  2003.05  2031.10
                             2031.19  2118.21  2139.24  2139.86  2152.22
                             2152.52  2156.50  2158.89  2164.97  2171.60
                             2173.37  2173.53  2228.64  2372.63  2404.62
                             2405.41  2415.44  4391.87  4392.11  4401.34
                             4401.38  4408.77  4408.80  4438.72  4438.74
                             4469.64  4470.06  4503.10  4503.28  4515.02
                             4515.03  4563.95  4586.57  4588.10  4599.84
                             4606.65  4620.43  4627.73  4643.19

 Zero-point correction=                           0.352815 (Hartree/Particle)
 Thermal correction to Energy=                    0.370480
 Thermal correction to Enthalpy=                  0.371424
 Thermal correction to Gibbs Free Energy=         0.304859
 Sum of electronic and zero-point Energies=           -698.764839
 Sum of electronic and thermal Energies=              -698.747174
 Sum of electronic and thermal Enthalpies=            -698.746230
 Sum of electronic and thermal Free Energies=         -698.812795

                     E (Thermal)             CV                S
                      KCal/Mol        Cal/Mol-Kelvin    Cal/Mol-Kelvin
 Total                  232.480             67.220            140.097
 Electronic               0.000              0.000              0.000
 Translational            0.889              2.981             42.305
 Rotational               0.889              2.981             34.202
 Vibrational            230.702             61.259             63.590
 Vibration     1          0.593              1.985              6.345
 Vibration     2          0.593              1.985              6.093
 Vibration     3          0.595              1.978              4.865
 Vibration     4          0.596              1.977              4.742
 Vibration     5          0.600              1.963              3.915
 Vibration     6          0.600              1.961              3.825
 Vibration     7          0.606              1.943              3.311
 Vibration     8          0.608              1.935              3.141
 Vibration     9          0.609              1.934              3.122
 Vibration    10          0.656              1.783              1.821
 Vibration    11          0.658              1.777              1.792
 Vibration    12          0.664              1.758              1.711
 Vibration    13          0.668              1.747              1.665
 Vibration    14          0.678              1.717              1.555
 Vibration    15          0.683              1.701              1.503
 Vibration    16          0.684              1.700              1.498
 Vibration    17          0.703              1.644              1.334
 Vibration    18          0.729              1.571              1.157
 Vibration    19          0.729              1.569              1.152
 Vibration    20          0.782              1.428              0.894
 Vibration    21          0.806              1.367              0.805
 Vibration    22          0.899              1.153              0.557
 Vibration    23          0.924              1.101              0.508
 Vibration    24          0.933              1.082              0.492

 Optimization completed.
    -- Stationary point found.
 Normal termination of Gaussian 16 at Tue Nov 14 07:43:40 2023.
