 Gaussian 16, Revision C.01,
 Gaussian 16:  ES64L-G16RevC.01  3-Jul-2019

 -----------------------------------------
 # opt freq=noraman m062x def2tzvp pop=nbo
 -----------------------------------------

 ------------
 Structure697
 ------------
 Symbolic Z-matrix:
 Charge =  0 Multiplicity = 1

 SCF Done:  E(RM062X) =  -2088.71795600     A.U. after   15 cycles
 SCF Done:  E(RM062X) =  -2088.72719322     A.U. after   15 cycles
 SCF Done:  E(RM062X) =  -2088.72865047     A.U. after   14 cycles
 SCF Done:  E(RM062X) =  -2088.72897865     A.U. after   13 cycles
 SCF Done:  E(RM062X) =  -2088.72901764     A.U. after   42 cycles
 SCF Done:  E(RM062X) =  -2088.72911281     A.U. after   13 cycles
 SCF Done:  E(RM062X) =  -2088.72911486     A.U. after   12 cycles
 SCF Done:  E(RM062X) =  -2088.72911627     A.U. after    7 cycles
 SCF Done:  E(RM062X) =  -2088.72911743     A.U. after    7 cycles
 SCF Done:  E(RM062X) =  -2088.72911844     A.U. after   12 cycles
 SCF Done:  E(RM062X) =  -2088.72911887     A.U. after   15 cycles
 SCF Done:  E(RM062X) =  -2088.72911900     A.U. after   12 cycles
 SCF Done:  E(RM062X) =  -2088.72911901     A.U. after    5 cycles
 SCF Done:  E(RM062X) =  -2088.72911903     A.U. after    6 cycles
 Optimization completed.
    -- Stationary point found.
 Normal termination of Gaussian 16 at Mon Nov 13 04:24:14 2023.

 --------------------------------------------------------------------
 #N Geom=AllCheck Guess=TCheck SCRF=Check GenChk RM062X/def2TZVP Freq
 --------------------------------------------------------------------

 Structure from the checkpoint file:  "ph_35iprf_6_1_m062x.chk"
 ------------
 Structure697
 ------------
 Charge =  0 Multiplicity = 1

                         Standard orientation:
 ---------------------------------------------------------------------
 Center     Atomic      Atomic             Coordinates (Angstroms)
 Number     Number       Type             X           Y           Z
 ---------------------------------------------------------------------
      1          6           0        0.950333    3.777135    0.733820
      2          6           0        0.949079    5.163309    0.734941
      3          6           0        0.000007    5.860275    0.000037
      4          6           0       -0.949065    5.163323   -0.734879
      5          6           0       -0.950322    3.777149   -0.733782
      6          6           0        0.000005    3.067924    0.000013
      7          1           0        0.000008    6.942294    0.000047
      8          1           0       -1.678967    3.239232   -1.328064
      9          1           0        1.686797    5.700132    1.316804
     10          1           0        1.678978    3.239206    1.328093
     11          6           0       -0.000003   -1.209107   -0.000018
     12          6           0       -1.197578   -0.508546    0.022418
     13          6           0       -1.199226    0.879773    0.025541
     14          6           0        0.000002    1.587185    0.000002
     15          6           0        1.199229    0.879770   -0.025547
     16          6           0        1.197575   -0.508550   -0.022442
     17          1           0       -2.129211    1.428486    0.068622
     18          1           0        2.129217    1.428479   -0.068620
     19          1           0       -1.686782    5.700157   -1.316732
     20          1           0       -0.000005   -2.287759   -0.000026
     21          6           0       -2.492879   -1.296390    0.048527
     22          9           0       -2.235410   -2.637447    0.074198
     23          6           0        2.492874   -1.296396   -0.048563
     24          9           0        2.235406   -2.637451   -0.074310
     25          6           0       -3.317752   -1.069423   -1.239463
     26          9           0       -4.409058   -1.821933   -1.256269
     27          9           0       -3.688557    0.203713   -1.364574
     28          6           0        3.309891   -1.019544   -1.332069
     29          9           0        4.348298   -1.837226   -1.428596
     30          9           0        2.535542   -1.210171   -2.393894
     31          9           0       -2.576135   -1.392990   -2.292300
     32          9           0        3.761816    0.232831   -1.361329
     33          6           0       -3.309863   -1.019608    1.332070
     34          9           0       -4.348239   -1.837326    1.428608
     35          9           0       -2.535470   -1.210245    2.393861
     36          9           0       -3.761828    0.232751    1.361388
     37          6           0        3.317717   -1.069496    1.239459
     38          9           0        4.409064   -1.821948    1.256211
     39          9           0        3.688450    0.203649    1.364690
     40          9           0        2.576102   -1.393198    2.292258
 ---------------------------------------------------------------------

 SCF Done:  E(RM062X) =  -2088.72911903     A.U. after    1 cycles

 The electronic state is 1-A.
 Alpha  occ. eigenvalues --  -25.31139 -25.31139 -25.31095 -25.31095 -25.30626
 Alpha  occ. eigenvalues --  -25.30626 -25.30603 -25.30603 -25.30573 -25.30573
 Alpha  occ. eigenvalues --  -25.30516 -25.30516 -25.29461 -25.29461 -10.82900
 Alpha  occ. eigenvalues --  -10.82900 -10.82864 -10.82864 -10.70366 -10.70366
 Alpha  occ. eigenvalues --  -10.59982 -10.59982 -10.58790 -10.58311 -10.58151
 Alpha  occ. eigenvalues --  -10.58145 -10.57258 -10.56023 -10.56019 -10.55815
 Alpha  occ. eigenvalues --  -10.55781 -10.55689  -1.50536  -1.50536  -1.49853
 Alpha  occ. eigenvalues --   -1.49853  -1.41774  -1.41767  -1.40639  -1.40638
 Alpha  occ. eigenvalues --   -1.40590  -1.40590  -1.40449  -1.40445  -1.40271
 Alpha  occ. eigenvalues --   -1.40271  -1.02631  -0.98660  -0.97672  -0.94823
 Alpha  occ. eigenvalues --   -0.90654  -0.88087  -0.86248  -0.85322  -0.85318
 Alpha  occ. eigenvalues --   -0.84774  -0.80446  -0.80043  -0.75976  -0.74913
 Alpha  occ. eigenvalues --   -0.74546  -0.74506  -0.73679  -0.73427  -0.73092
 Alpha  occ. eigenvalues --   -0.72205  -0.72196  -0.72161  -0.70971  -0.70958
 Alpha  occ. eigenvalues --   -0.70705  -0.68977  -0.68486  -0.67347  -0.65781
 Alpha  occ. eigenvalues --   -0.62159  -0.61647  -0.60990  -0.60838  -0.60591
 Alpha  occ. eigenvalues --   -0.60345  -0.60323  -0.59618  -0.59604  -0.59457
 Alpha  occ. eigenvalues --   -0.59058  -0.58655  -0.58630  -0.58299  -0.57027
 Alpha  occ. eigenvalues --   -0.56948  -0.56779  -0.56373  -0.56150  -0.55633
 Alpha  occ. eigenvalues --   -0.55498  -0.55262  -0.55081  -0.55071  -0.54758
 Alpha  occ. eigenvalues --   -0.54361  -0.54223  -0.53826  -0.53804  -0.52949
 Alpha  occ. eigenvalues --   -0.51638  -0.50815  -0.49603  -0.49164  -0.48480
 Alpha  occ. eigenvalues --   -0.47159  -0.46559  -0.46102  -0.45158  -0.43999
 Alpha  occ. eigenvalues --   -0.42085  -0.41744  -0.36509  -0.34975  -0.32749
 Alpha  occ. eigenvalues --   -0.30708
 Alpha virt. eigenvalues --   -0.03447  -0.02874   0.00352   0.02550   0.06311
 Alpha virt. eigenvalues --    0.06798   0.07760   0.08631   0.08707   0.11070
 Alpha virt. eigenvalues --    0.11348   0.11611   0.11932   0.12423   0.13334

 Mulliken charges:
               1
     1  C   -0.208632
     2  C   -0.154113
     3  C   -0.140914
     4  C   -0.154113
     5  C   -0.208633
     6  C    0.089058
     7  H    0.148529
     8  H    0.173122
     9  H    0.150186
    10  H    0.173122
    11  C   -0.129618
    12  C    0.004312
    13  C   -0.242783
    14  C    0.139303
    15  C   -0.242778
    16  C    0.004305
    17  H    0.221211
    18  H    0.221213
    19  H    0.150186
    20  H    0.197375
    21  C   -0.037539
    22  F   -0.177359
    23  C   -0.037532
    24  F   -0.177359
    25  C    0.517585
    26  F   -0.146943
    27  F   -0.160778
    28  C    0.521520
    29  F   -0.146879
    30  F   -0.153351
    31  F   -0.152705
    32  F   -0.158722
    33  C    0.521517
    34  F   -0.146880
    35  F   -0.153351
    36  F   -0.158721
    37  C    0.517583
    38  F   -0.146943
    39  F   -0.160778
    40  F   -0.152705
 Sum of Mulliken charges =  -0.00000

 Dipole moment (field-independent basis, Debye):
    X=              0.0000    Y=              3.5166    Z=              0.0000  Tot=              3.5166
 Quadrupole moment (field-independent basis, Debye-Ang):
   XX=           -182.3685   YY=           -163.9415   ZZ=           -179.3112
   XY=              0.0000   XZ=              3.9676   YZ=              0.0001

  Exact polarizability:     221.027      -0.004     264.605      14.263       0.000     149.677
 Approx polarizability:     271.879      -0.000     313.379      22.841       0.001     198.742

 Summary of Natural Population Analysis:

                                       Natural Population
                Natural  -----------------------------------------------
    Atom  No    Charge         Core      Valence    Rydberg      Total
 -----------------------------------------------------------------------
      C    1   -0.19338      1.99913     4.17639    0.01785     6.19338
      C    2   -0.19954      1.99923     4.18250    0.01781     6.19954
      C    3   -0.20315      1.99922     4.18579    0.01814     6.20315
      C    4   -0.19954      1.99923     4.18250    0.01781     6.19954
      C    5   -0.19338      1.99913     4.17639    0.01785     6.19338
      C    6   -0.06151      1.99909     4.04404    0.01838     6.06151
      H    7    0.21718      0.00000     0.78180    0.00102     0.78282
      H    8    0.21453      0.00000     0.78393    0.00154     0.78547
      H    9    0.21788      0.00000     0.78112    0.00100     0.78212
      H   10    0.21453      0.00000     0.78393    0.00154     0.78547
      C   11   -0.16949      1.99901     4.15250    0.01798     6.16949
      C   12   -0.07582      1.99905     4.05661    0.02017     6.07582
      C   13   -0.17121      1.99903     4.15665    0.01553     6.17121
      C   14   -0.02249      1.99911     4.00401    0.01938     6.02249
      C   15   -0.17121      1.99903     4.15664    0.01553     6.17121
      C   16   -0.07583      1.99905     4.05661    0.02017     6.07583
      H   17    0.23918      0.00000     0.75945    0.00136     0.76082
      H   18    0.23918      0.00000     0.75945    0.00136     0.76082
      H   19    0.21788      0.00000     0.78112    0.00100     0.78212
      H   20    0.25639      0.00000     0.74238    0.00123     0.74361
      C   21    0.18005      1.99883     3.77953    0.04159     5.81995
      F   22   -0.30553      1.99994     7.29865    0.00694     9.30553
      C   23    0.18005      1.99883     3.77953    0.04159     5.81995
      F   24   -0.30553      1.99994     7.29865    0.00694     9.30553
      C   25    0.95710      1.99938     2.99126    0.05226     5.04290
      F   26   -0.29937      1.99991     7.29009    0.00938     9.29937
      F   27   -0.31223      1.99991     7.30306    0.00926     9.31223
      C   28    0.95724      1.99938     2.99104    0.05233     5.04276
      F   29   -0.29848      1.99991     7.28918    0.00938     9.29848
      F   30   -0.30371      1.99991     7.29430    0.00949     9.30371
      F   31   -0.30357      1.99991     7.29416    0.00949     9.30357
      F   32   -0.31159      1.99991     7.30238    0.00930     9.31159
      C   33    0.95724      1.99938     2.99104    0.05233     5.04276
      F   34   -0.29848      1.99991     7.28918    0.00938     9.29848
      F   35   -0.30371      1.99991     7.29430    0.00949     9.30371
      F   36   -0.31159      1.99991     7.30238    0.00930     9.31159
      C   37    0.95710      1.99938     2.99126    0.05226     5.04290
      F   38   -0.29938      1.99991     7.29009    0.00938     9.29938
      F   39   -0.31223      1.99991     7.30306    0.00926     9.31223
      F   40   -0.30357      1.99991     7.29416    0.00949     9.30357
 =======================================================================
   * Total *    0.00000     63.98335   177.37113    0.64552   242.00000

                      1                      2                      3
                      A                      A                      A
 Frequencies --      5.4183                 6.6888                30.9247
 Red. masses --     14.7052                18.0388                15.0781
 Frc consts  --      0.0003                 0.0005                 0.0085
 IR Inten    --      0.0346                 0.0003                 0.0002

                      4                      5                      6
                      A                      A                      A
 Frequencies --     42.9461                46.1177                46.2025
 Red. masses --     14.5055                 4.3216                10.0891
 Frc consts  --      0.0158                 0.0054                 0.0127
 IR Inten    --      0.0017                 0.0020                 0.0120

                      7                      8                      9
                      A                      A                      A
 Frequencies --     55.8010                70.2164                75.7162
 Red. masses --      6.8995                16.7322                10.4580
 Frc consts  --      0.0127                 0.0486                 0.0353
 IR Inten    --      0.1065                 0.1314                 0.0104

                     10                     11                     12
                      A                      A                      A
 Frequencies --     79.8216                95.3826               121.0021
 Red. masses --     17.9535                13.4257                 5.9491
 Frc consts  --      0.0674                 0.0720                 0.0513
 IR Inten    --      0.0292                 0.2388                 0.1394

                     13                     14                     15
                      A                      A                      A
 Frequencies --    122.2326               157.7782               188.6272
 Red. masses --     15.5949                11.9063                 8.1777
 Frc consts  --      0.1373                 0.1746                 0.1714
 IR Inten    --      0.3684                 1.5343                 0.0234

                     16                     17                     18
                      A                      A                      A
 Frequencies --    205.3883               228.9716               246.4036
 Red. masses --     17.9261                 9.1648                 7.5391
 Frc consts  --      0.4455                 0.2831                 0.2697
 IR Inten    --      1.4010                 1.2383                 1.1485

                     19                     20                     21
                      A                      A                      A
 Frequencies --    247.5532               252.3495               267.2807
 Red. masses --     11.5575                10.6259                 9.6021
 Frc consts  --      0.4173                 0.3987                 0.4042
 IR Inten    --      0.0268                 0.1355                 1.0813

                     22                     23                     24
                      A                      A                      A
 Frequencies --    270.6853               293.4327               299.6930
 Red. masses --      6.1299                 6.2226                13.6973
 Frc consts  --      0.2646                 0.3157                 0.7248
 IR Inten    --      0.0028                 0.0901                 1.4988

                     25                     26                     27
                      A                      A                      A
 Frequencies --    316.6035               316.7049               320.9452
 Red. masses --     10.9151                15.3687                12.9928
 Frc consts  --      0.6446                 0.9082                 0.7885
 IR Inten    --      0.0339                 1.6722                 1.6348

                     28                     29                     30
                      A                      A                      A
 Frequencies --    330.7734               335.8087               349.8340
 Red. masses --     15.8509                17.1491                18.4857
 Frc consts  --      1.0218                 1.1394                 1.3329
 IR Inten    --      4.6089                 0.0045                 0.0005

                     31                     32                     33
                      A                      A                      A
 Frequencies --    352.2658               389.8901               408.1057
 Red. masses --     17.7582                 7.4028                 8.4577
 Frc consts  --      1.2983                 0.6630                 0.8299
 IR Inten    --      0.1789                 4.5099                 2.5974

                     34                     35                     36
                      A                      A                      A
 Frequencies --    418.8516               428.7097               496.1734
 Red. masses --      3.1272                 6.0559                 6.6084
 Frc consts  --      0.3232                 0.6558                 0.9585
 IR Inten    --      1.0397                 2.1401                 5.5725

                     37                     38                     39
                      A                      A                      A
 Frequencies --    504.8261               542.3750               545.1081
 Red. masses --     14.3618                 7.3134                17.8805
 Frc consts  --      2.1565                 1.2676                 3.1304
 IR Inten    --      2.7571                 8.1206                 0.0008

                     40                     41                     42
                      A                      A                      A
 Frequencies --    545.2408               557.3244               559.9824
 Red. masses --     17.4252                17.3431                11.8095
 Frc consts  --      3.0521                 3.1739                 2.1819
 IR Inten    --      8.7152                 3.4549                 0.1167

                     43                     44                     45
                      A                      A                      A
 Frequencies --    571.8986               579.7489               606.4103
 Red. masses --     15.2765                 8.2644                 8.3656
 Frc consts  --      2.9438                 1.6366                 1.8125
 IR Inten    --      0.0540                10.0213                 0.0419

                     46                     47                     48
                      A                      A                      A
 Frequencies --    619.6350               635.9813               636.0892
 Red. masses --      5.0706                 6.1001                11.5178
 Frc consts  --      1.1470                 1.4537                 2.7457
 IR Inten    --      1.0675                 0.2505                 0.7413

                     49                     50                     51
                      A                      A                      A
 Frequencies --    644.8113               652.9402               720.9780
 Red. masses --      9.2699                11.6326                 4.0412
 Frc consts  --      2.2709                 2.9220                 1.2377
 IR Inten    --     11.9796                 0.4934                10.0352

                     52                     53                     54
                      A                      A                      A
 Frequencies --    723.5824               726.9318               749.3400
 Red. masses --      2.7251                 2.9651                13.9276
 Frc consts  --      0.8406                 0.9232                 4.6077
 IR Inten    --     23.5951                95.2106                 0.0326

                     55                     56                     57
                      A                      A                      A
 Frequencies --    752.7576               767.5901               794.1739
 Red. masses --      3.8307                14.5614                 2.4340
 Frc consts  --      1.2789                 5.0549                 0.9045
 IR Inten    --     92.2951                 4.1753                21.4294

                     58                     59                     60
                      A                      A                      A
 Frequencies --    805.9638               828.7606               878.2411
 Red. masses --      5.5807                 8.3338                 1.2462
 Frc consts  --      2.1359                 3.3725                 0.5663
 IR Inten    --      7.5068                 8.6172                 0.6858

                     61                     62                     63
                      A                      A                      A
 Frequencies --    931.6009               950.3392               965.9160
 Red. masses --      1.7481                 1.3701                 1.4163
 Frc consts  --      0.8939                 0.7291                 0.7785
 IR Inten    --     46.9775                 0.0743                 0.1798

                     64                     65                     66
                      A                      A                      A
 Frequencies --    972.0801               984.6705              1003.9666
 Red. masses --      1.5301                10.2027                 1.3889
 Frc consts  --      0.8519                 5.8283                 0.8248
 IR Inten    --      2.4493                 5.4100                 0.7206

                     67                     68                     69
                      A                      A                      A
 Frequencies --   1021.2590              1024.6140              1025.1856
 Red. masses --      6.0682                 1.3072                 8.1847
 Frc consts  --      3.7289                 0.8086                 5.0682
 IR Inten    --      1.0371                 0.3459                 0.0757

                     70                     71                     72
                      A                      A                      A
 Frequencies --   1027.2420              1029.3476              1065.5037
 Red. masses --      6.3059                 8.4723                 2.3452
 Frc consts  --      3.9205                 5.2890                 1.5687
 IR Inten    --      0.0327               196.5710                 2.9311

                     73                     74                     75
                      A                      A                      A
 Frequencies --   1100.7885              1118.0724              1118.9879
 Red. masses --      4.8285                 2.6159                 1.5255
 Frc consts  --      3.4472                 1.9267                 1.1254
 IR Inten    --    144.4691                16.9854                 8.2732

                     76                     77                     78
                      A                      A                      A
 Frequencies --   1173.5366              1181.5063              1201.3618
 Red. masses --      3.0671                 1.1830                 3.0600
 Frc consts  --      2.4887                 0.9730                 2.6021
 IR Inten    --     92.4669                 2.5894                25.4480

                     79                     80                     81
                      A                      A                      A
 Frequencies --   1213.5720              1232.7637              1235.7227
 Red. masses --      1.2010                13.0878                13.0221
 Frc consts  --      1.0421                11.7186                11.7158
 IR Inten    --     11.2726                 0.0838                71.9997

                     82                     83                     84
                      A                      A                      A
 Frequencies --   1251.0025              1254.3973              1255.1892
 Red. masses --      3.0030                12.8569                12.6416
 Frc consts  --      2.7690                11.9195                11.7347
 IR Inten    --    112.7419                 1.0719                20.7736

                     85                     86                     87
                      A                      A                      A
 Frequencies --   1263.3441              1278.0051              1292.4354
 Red. masses --      2.8711                 3.7694                11.2019
 Frc consts  --      2.6999                 3.6273                11.0245
 IR Inten    --    319.7886                 1.5912                68.8847

                     88                     89                     90
                      A                      A                      A
 Frequencies --   1295.5812              1307.1072              1307.2180
 Red. masses --      9.9107                 4.6757                 9.8370
 Frc consts  --      9.8013                 4.7068                 9.9040
 IR Inten    --    556.8280                77.9920                43.6146

                     91                     92                     93
                      A                      A                      A
 Frequencies --   1319.0882              1337.7390              1339.5456
 Red. masses --      7.1737                12.2816                12.0010
 Frc consts  --      7.3543                12.9494                12.6877
 IR Inten    --    173.5522                 0.1090               443.3728

                     94                     95                     96
                      A                      A                      A
 Frequencies --   1350.9117              1354.5227              1362.0183
 Red. masses --      1.7146                10.1391                 4.5042
 Frc consts  --      1.8436                10.9603                 4.9230
 IR Inten    --    121.4382               103.2394               390.4730

                     97                     98                     99
                      A                      A                      A
 Frequencies --   1365.2056              1377.8586              1473.9697
 Red. masses --      1.5569                 7.1428                 2.6888
 Frc consts  --      1.7096                 7.9897                 3.4417
 IR Inten    --     21.4276                 3.9247                14.6907

                    100                    101                    102
                      A                      A                      A
 Frequencies --   1508.5717              1511.6605              1551.0247
 Red. masses --      3.2485                 2.9843                 2.7231
 Frc consts  --      4.3558                 4.0179                 3.8597
 IR Inten    --     23.2385                 2.3076                 2.3718

                    103                    104                    105
                      A                      A                      A
 Frequencies --   1651.8921              1676.8571              1677.6116
 Red. masses --      5.6330                 6.1769                 6.1820
 Frc consts  --      9.0563                10.2333                10.2509
 IR Inten    --      3.5596                26.7009                 2.1610

                    106                    107                    108
                      A                      A                      A
 Frequencies --   1679.6020              3199.4444              3201.7764
 Red. masses --      5.9454                 1.0867                 1.0885
 Frc consts  --      9.8820                 6.5539                 6.5747
 IR Inten    --      0.2735                 4.0603                 0.2722

                    109                    110                    111
                      A                      A                      A
 Frequencies --   3212.2433              3220.1522              3230.6598
 Red. masses --      1.0908                 1.0946                 1.0985
 Frc consts  --      6.6314                 6.6876                 6.7553
 IR Inten    --      2.1196                 8.9501                 8.1390

                    112                    113                    114
                      A                      A                      A
 Frequencies --   3244.6990              3244.8457              3267.8888
 Red. masses --      1.0903                 1.0913                 1.0908
 Frc consts  --      6.7629                 6.7699                 6.8635
 IR Inten    --      1.9606                 0.2169                10.1172

 - Thermochemistry -
 -------------------
 Temperature   298.150 Kelvin.  Pressure   1.00000 Atm.
 Atom     1 has atomic number  6 and mass  12.00000

 Molecular mass:   490.04025 amu.
 Principal axes and moments of inertia in atomic units:
                           1         2         3
     Eigenvalues --  ******************************
           X            0.99999   0.00000   0.00335
           Y           -0.00000   1.00000   0.00000
           Z           -0.00335  -0.00000   0.99999
 This molecule is an asymmetric top.
 Rotational symmetry number  1.
 Warning -- assumption of classical behavior for rotation
           may cause significant error
 Rotational temperatures (Kelvin)      0.00741     0.00504     0.00375
 Rotational constants (GHZ):           0.15436     0.10494     0.07808
 Zero-point vibrational energy     641880.8 (Joules/Mol)
                                  153.41320 (Kcal/Mol)
 Warning -- explicit consideration of  46 degrees of freedom as
           vibrations may cause significant error
 Vibrational temperatures:      7.80     9.62    44.49    61.79    66.35
          (Kelvin)             66.48    80.29   101.03   108.94   114.85
                              137.23   174.10   175.87   227.01   271.39
                              295.51   329.44   354.52   356.17   363.07
                              384.56   389.46   422.18   431.19   455.52
                              455.67   461.77   475.91   483.15   503.33
                              506.83   560.96   587.17   602.63   616.82
                              713.88   726.33   780.36   784.29   784.48
                              801.87   805.69   822.83   834.13   872.49
                              891.52   915.04   915.19   927.74   939.44
                             1037.33  1041.07  1045.89  1078.13  1083.05
                             1104.39  1142.64  1159.60  1192.40  1263.59
                             1340.37  1367.33  1389.74  1398.61  1416.72
                             1444.48  1469.36  1474.19  1475.01  1477.97
                             1481.00  1533.02  1583.79  1608.66  1609.97
                             1688.46  1699.92  1728.49  1746.06  1773.67
                             1777.93  1799.91  1804.80  1805.94  1817.67
                             1838.76  1859.53  1864.05  1880.64  1880.80
                             1897.87  1924.71  1927.31  1943.66  1948.86
                             1959.64  1964.23  1982.43  2120.71  2170.50
                             2174.94  2231.58  2376.70  2412.62  2413.71
                             2416.57  4603.29  4606.64  4621.70  4633.08
                             4648.20  4668.40  4668.61  4701.76

 Zero-point correction=                           0.244480 (Hartree/Particle)
 Thermal correction to Energy=                    0.271571
 Thermal correction to Enthalpy=                  0.272515
 Thermal correction to Gibbs Free Energy=         0.181857
 Sum of electronic and zero-point Energies=          -2088.484640
 Sum of electronic and thermal Energies=             -2088.457548
 Sum of electronic and thermal Enthalpies=           -2088.456604
 Sum of electronic and thermal Free Energies=        -2088.547262

                     E (Thermal)             CV                S
                      KCal/Mol        Cal/Mol-Kelvin    Cal/Mol-Kelvin
 Total                  170.413            100.660            190.807
 Electronic               0.000              0.000              0.000
 Translational            0.889              2.981             44.455
 Rotational               0.889              2.981             36.784
 Vibrational            168.636             94.698            109.568
 Vibration     1          0.593              1.987              9.229
 Vibration     2          0.593              1.987              8.810
 Vibration     3          0.594              1.984              5.769
 Vibration     4          0.595              1.980              5.118
 Vibration     5          0.595              1.979              4.977
 Vibration     6          0.595              1.979              4.974
 Vibration     7          0.596              1.975              4.600
 Vibration     8          0.598              1.968              4.147
 Vibration     9          0.599              1.965              3.999
 Vibration    10          0.600              1.963              3.895
 Vibration    11          0.603              1.952              3.547
 Vibration    12          0.609              1.932              3.084
 Vibration    13          0.610              1.931              3.065
 Vibration    14          0.621              1.894              2.576
 Vibration    15          0.633              1.855              2.241
 Vibration    16          0.640              1.832              2.084
 Vibration    17          0.652              1.797              1.887
 Vibration    18          0.661              1.769              1.756
 Vibration    19          0.661              1.767              1.748
 Vibration    20          0.664              1.759              1.714
 Vibration    21          0.672              1.733              1.614
 Vibration    22          0.674              1.727              1.592
 Vibration    23          0.688              1.686              1.454
 Vibration    24          0.692              1.674              1.419
 Vibration    25          0.703              1.642              1.328
 Vibration    26          0.704              1.642              1.327
 Vibration    27          0.706              1.633              1.305
 Vibration    28          0.713              1.614              1.256
 Vibration    29          0.717              1.604              1.232
 Vibration    30          0.727              1.576              1.167
 Vibration    31          0.729              1.571              1.156
 Vibration    32          0.758              1.492              1.001
 Vibration    33          0.773              1.453              0.933
 Vibration    34          0.782              1.429              0.896
 Vibration    35          0.790              1.408              0.863
 Vibration    36          0.852              1.259              0.668
 Vibration    37          0.860              1.239              0.646
 Vibration    38          0.897              1.156              0.560
 Vibration    39          0.900              1.150              0.554
 Vibration    40          0.900              1.150              0.554
 Vibration    41          0.913              1.124              0.529
 Vibration    42          0.916              1.118              0.524
 Vibration    43          0.928              1.092              0.501
 Vibration    44          0.936              1.075              0.486
 Vibration    45          0.965              1.018              0.439
 Vibration    46          0.980              0.990              0.417

 Optimization completed.
    -- Stationary point found.
 Normal termination of Gaussian 16 at Mon Nov 13 09:49:00 2023.
