 Gaussian 16, Revision C.01,
 Gaussian 16:  ES64L-G16RevC.01  3-Jul-2019

 -----------------------------------------
 # opt freq=noraman m062x def2tzvp pop=nbo
 -----------------------------------------

 ------------
 Structure697
 ------------
 Symbolic Z-matrix:
 Charge =  0 Multiplicity = 1

 SCF Done:  E(RM062X) =  -502.577084578     A.U. after   24 cycles
 SCF Done:  E(RM062X) =  -502.578345942     A.U. after   21 cycles
 SCF Done:  E(RM062X) =  -502.578404856     A.U. after   19 cycles
 SCF Done:  E(RM062X) =  -502.578407268     A.U. after    8 cycles
 SCF Done:  E(RM062X) =  -502.578407483     A.U. after    7 cycles
 Optimization completed.
    -- Stationary point found.
 Normal termination of Gaussian 16 at Tue Nov 14 10:53:49 2023.

 --------------------------------------------------------------------
 #N Geom=AllCheck Guess=TCheck SCRF=Check GenChk RM062X/def2TZVP Freq
 --------------------------------------------------------------------

 Structure from the checkpoint file:  "ph_4me_2_1_m062x.chk"
 ------------
 Structure697
 ------------
 Charge =  0 Multiplicity = 1

                         Standard orientation:
 ---------------------------------------------------------------------
 Center     Atomic      Atomic             Coordinates (Angstroms)
 Number     Number       Type             X           Y           Z
 ---------------------------------------------------------------------
      1          6           0        1.924260   -1.131722    0.396405
      2          6           0        3.310767   -1.133567    0.398795
      3          6           0        4.011503   -0.002136    0.004326
      4          6           0        3.313892    1.130427   -0.392364
      5          6           0        1.927360    1.130929   -0.394332
      6          6           0        1.211286    0.000220   -0.000038
      7          1           0        5.093628   -0.003039    0.005999
      8          1           0        1.390072    2.009839   -0.728532
      9          1           0        3.845746   -2.018961    0.717570
     10          1           0        1.384328   -2.009765    0.728677
     11          6           0       -3.091674    0.003376   -0.009119
     12          6           0       -2.373719    1.128114    0.387245
     13          6           0       -0.988079    1.129305    0.391551
     14          6           0       -0.269443    0.001046   -0.001858
     15          6           0       -0.987911   -1.125165   -0.401544
     16          6           0       -2.373541   -1.121100   -0.406013
     17          1           0       -0.454438    2.010908    0.724959
     18          1           0       -0.453944   -2.004788   -0.739622
     19          1           0        3.851341    2.014898   -0.709542
     20          6           0       -4.594810   -0.006047    0.017149
     21          1           0       -4.997827   -0.674656   -0.743142
     22          1           0       -4.962014   -0.349464    0.986985
     23          1           0       -4.998438    0.991652   -0.153647
     24          1           0       -2.909108    2.016248    0.702838
     25          1           0       -2.908688   -2.004952   -0.733764
 ---------------------------------------------------------------------

 SCF Done:  E(RM062X) =  -502.578407483     A.U. after    1 cycles

 The electronic state is 1-A.
 Alpha  occ. eigenvalues --  -10.55038 -10.54812 -10.54776 -10.54086 -10.54070
 Alpha  occ. eigenvalues --  -10.53967 -10.53964 -10.53961 -10.53957 -10.53910
 Alpha  occ. eigenvalues --  -10.53742 -10.53738 -10.53253  -0.97796  -0.95585
 Alpha  occ. eigenvalues --   -0.88911  -0.84766  -0.83944  -0.83756  -0.77369
 Alpha  occ. eigenvalues --   -0.70459  -0.69385  -0.67547  -0.65249  -0.60650
 Alpha  occ. eigenvalues --   -0.55988  -0.54199  -0.53507  -0.51086  -0.50945
 Alpha  occ. eigenvalues --   -0.49150  -0.49045  -0.48224  -0.47663  -0.45591
 Alpha  occ. eigenvalues --   -0.44245  -0.42290  -0.42124  -0.40706  -0.39189
 Alpha  occ. eigenvalues --   -0.38972  -0.32865  -0.30929  -0.30866  -0.27351
 Alpha virt. eigenvalues --   -0.00211   0.01832   0.02357   0.05507   0.07778
 Alpha virt. eigenvalues --    0.08532   0.09886   0.10003   0.11616   0.12064
 Alpha virt. eigenvalues --    0.13565   0.13820   0.14961   0.15488   0.15886

 Mulliken charges:
               1
     1  C   -0.215607
     2  C   -0.149600
     3  C   -0.151278
     4  C   -0.149609
     5  C   -0.214762
     6  C    0.117502
     7  H    0.141906
     8  H    0.164767
     9  H    0.142082
    10  H    0.165080
    11  C    0.103362
    12  C   -0.180088
    13  C   -0.213118
    14  C    0.098464
    15  C   -0.210641
    16  C   -0.180440
    17  H    0.164003
    18  H    0.164962
    19  H    0.142067
    20  C   -0.475380
    21  H    0.145456
    22  H    0.159235
    23  H    0.145262
    24  H    0.143298
    25  H    0.143076
 Sum of Mulliken charges =  -0.00000

 Dipole moment (field-independent basis, Debye):
    X=             -0.4942    Y=             -0.0129    Z=              0.0364  Tot=              0.4958
 Quadrupole moment (field-independent basis, Debye-Ang):
   XX=            -66.9177   YY=            -70.3968   ZZ=            -81.9097
   XY=              0.0542   XZ=             -0.1349   YZ=             -0.1624

  Exact polarizability:     224.093       0.187     139.133      -0.444      -0.203      87.739
 Approx polarizability:     243.182       0.195     201.712      -0.406       0.149     124.221

 Summary of Natural Population Analysis:

                                       Natural Population
                Natural  -----------------------------------------------
    Atom  No    Charge         Core      Valence    Rydberg      Total
 -----------------------------------------------------------------------
      C    1   -0.19858      1.99914     4.18098    0.01845     6.19858
      C    2   -0.20459      1.99923     4.18672    0.01865     6.20459
      C    3   -0.21530      1.99922     4.19744    0.01865     6.21530
      C    4   -0.20457      1.99923     4.18670    0.01865     6.20457
      C    5   -0.19861      1.99914     4.18101    0.01846     6.19861
      C    6   -0.04751      1.99910     4.02796    0.02044     6.04751
      H    7    0.21302      0.00000     0.78593    0.00105     0.78698
      H    8    0.21360      0.00000     0.78511    0.00129     0.78640
      H    9    0.21292      0.00000     0.78601    0.00107     0.78708
      H   10    0.21361      0.00000     0.78510    0.00129     0.78639
      C   11   -0.02504      1.99915     4.00708    0.01880     6.02504
      C   12   -0.20401      1.99913     4.18716    0.01772     6.20401
      C   13   -0.18794      1.99915     4.17038    0.01841     6.18794
      C   14   -0.06189      1.99909     4.04248    0.02031     6.06189
      C   15   -0.18802      1.99915     4.17045    0.01842     6.18802
      C   16   -0.20412      1.99913     4.18727    0.01772     6.20412
      H   17    0.21345      0.00000     0.78522    0.00133     0.78655
      H   18    0.21349      0.00000     0.78518    0.00133     0.78651
      H   19    0.21292      0.00000     0.78601    0.00107     0.78708
      C   20   -0.61929      1.99945     4.60806    0.01178     6.61929
      H   21    0.21476      0.00000     0.78425    0.00099     0.78524
      H   22    0.21966      0.00000     0.77918    0.00115     0.78034
      H   23    0.21461      0.00000     0.78440    0.00099     0.78539
      H   24    0.20872      0.00000     0.79002    0.00126     0.79128
      H   25    0.20871      0.00000     0.79003    0.00126     0.79129
 =======================================================================
   * Total *   -0.00000     25.98932    63.76013    0.25056    90.00000

                      1                      2                      3
                      A                      A                      A
 Frequencies --     27.5603                71.6789                73.3483
 Red. masses --      1.0252                 4.0044                 3.6952
 Frc consts  --      0.0005                 0.0121                 0.0117
 IR Inten    --      0.2316                 0.8531                 0.0151

                      4                      5                      6
                      A                      A                      A
 Frequencies --    111.6226               196.6863               293.2427
 Red. masses --      3.9724                 3.8794                 5.5050
 Frc consts  --      0.0292                 0.0884                 0.2789
 IR Inten    --      0.2237                 0.0752                 0.0445

                      7                      8                      9
                      A                      A                      A
 Frequencies --    296.3541               353.0664               413.8207
 Red. masses --      3.6756                 3.2228                 3.3558
 Frc consts  --      0.1902                 0.2367                 0.3386
 IR Inten    --      0.1786                 0.3686                 2.7645

                     10                     11                     12
                      A                      A                      A
 Frequencies --    416.6472               424.1204               512.1185
 Red. masses --      2.9505                 2.9767                 3.1908
 Frc consts  --      0.3018                 0.3155                 0.4930
 IR Inten    --      0.4843                 0.0702                14.9561

                     13                     14                     15
                      A                      A                      A
 Frequencies --    563.2089               570.2849               632.1092
 Red. masses --      2.6905                 5.4284                 6.3797
 Frc consts  --      0.5028                 1.0402                 1.5019
 IR Inten    --      4.2971                 3.0213                 0.0332

                     16                     17                     18
                      A                      A                      A
 Frequencies --    657.6587               721.9295               724.0440
 Red. masses --      6.7070                 5.0216                 1.7379
 Frc consts  --      1.7091                 1.5420                 0.5368
 IR Inten    --      0.3769                 2.1106                37.6412

                     19                     20                     21
                      A                      A                      A
 Frequencies --    745.2920               789.0526               830.8970
 Red. masses --      2.9411                 1.7442                 4.9885
 Frc consts  --      0.9625                 0.6398                 2.0292
 IR Inten    --      2.4036                58.4438                 0.0675

                     22                     23                     24
                      A                      A                      A
 Frequencies --    857.8101               871.0590               876.7819
 Red. masses --      1.5615                 1.2484                 1.2487
 Frc consts  --      0.6770                 0.5581                 0.5656
 IR Inten    --     22.4939                 0.2386                 0.0864

                     25                     26                     27
                      A                      A                      A
 Frequencies --    952.2487               986.8165               993.7073
 Red. masses --      1.4269                 1.3578                 1.3619
 Frc consts  --      0.7624                 0.7790                 0.7924
 IR Inten    --      1.4382                 0.8655                 0.3797

                     28                     29                     30
                      A                      A                      A
 Frequencies --    998.8924              1011.6049              1016.0697
 Red. masses --      1.3756                 1.3870                 1.3002
 Frc consts  --      0.8087                 0.8363                 0.7909
 IR Inten    --      0.1418                 0.0032                 0.0970

                     31                     32                     33
                      A                      A                      A
 Frequencies --   1020.7852              1031.9020              1055.6389
 Red. masses --      5.8888                 5.2398                 2.8564
 Frc consts  --      3.6153                 3.2873                 1.8754
 IR Inten    --      1.9133                 4.9175                 0.8511

                     34                     35                     36
                      A                      A                      A
 Frequencies --   1067.3792              1077.0321              1114.7398
 Red. masses --      1.5751                 1.8223                 1.5157
 Frc consts  --      1.0573                 1.2454                 1.1097
 IR Inten    --     10.7739                 1.3561                 3.8682

                     37                     38                     39
                      A                      A                      A
 Frequencies --   1144.6565              1178.4019              1205.9684
 Red. masses --      1.3059                 1.1486                 1.1160
 Frc consts  --      1.0081                 0.9397                 0.9563
 IR Inten    --      5.8307                 0.0402                 1.3708

                     40                     41                     42
                      A                      A                      A
 Frequencies --   1215.6994              1252.4296              1291.6315
 Red. masses --      1.1158                 2.7511                 3.9173
 Frc consts  --      0.9716                 2.5425                 3.8504
 IR Inten    --      1.1795                 1.2449                 0.8722

                     43                     44                     45
                      A                      A                      A
 Frequencies --   1314.1219              1323.9716              1342.1557
 Red. masses --      5.7655                 3.2842                 1.3626
 Frc consts  --      5.8663                 3.3919                 1.4462
 IR Inten    --      0.1032                 0.1161                 0.3081

                     46                     47                     48
                      A                      A                      A
 Frequencies --   1357.0466              1414.3643              1446.4645
 Red. masses --      1.4624                 1.2785                 2.4374
 Frc consts  --      1.5867                 1.5069                 3.0046
 IR Inten    --      0.7287                 0.1490                 2.3775

                     49                     50                     51
                      A                      A                      A
 Frequencies --   1487.6771              1491.5821              1501.7271
 Red. masses --      1.4932                 1.0518                 1.5680
 Frc consts  --      1.9470                 1.3788                 2.0835
 IR Inten    --     11.5163                 6.4026                 3.4775

                     52                     53                     54
                      A                      A                      A
 Frequencies --   1536.5390              1573.7174              1635.0998
 Red. masses --      2.2984                 2.9978                 5.7535
 Frc consts  --      3.1971                 4.3743                 9.0630
 IR Inten    --     40.3210                10.0088                 2.1058

                     55                     56                     57
                      A                      A                      A
 Frequencies --   1657.2216              1678.9238              1690.4315
 Red. masses --      6.4532                 6.0245                 6.3384
 Frc consts  --     10.4420                10.0054                10.6715
 IR Inten    --      0.6950                 9.7858                 1.4443

                     58                     59                     60
                      A                      A                      A
 Frequencies --   3062.3704              3124.6439              3149.9405
 Red. masses --      1.0386                 1.0973                 1.1029
 Frc consts  --      5.7390                 6.3123                 6.4478
 IR Inten    --     24.8180                11.5336                10.0710

                     61                     62                     63
                      A                      A                      A
 Frequencies --   3190.5915              3191.4849              3198.3056
 Red. masses --      1.0880                 1.0879                 1.0853
 Frc consts  --      6.5253                 6.5289                 6.5411
 IR Inten    --     13.9689                10.3286                 2.5606

                     64                     65                     66
                      A                      A                      A
 Frequencies --   3202.6686              3210.6682              3210.9803
 Red. masses --      1.0882                 1.0929                 1.0929
 Frc consts  --      6.5763                 6.6378                 6.6389
 IR Inten    --      1.7296                 5.1971                 5.4664

                     67                     68                     69
                      A                      A                      A
 Frequencies --   3214.4410              3218.3325              3228.4175
 Red. masses --      1.0929                 1.0947                 1.0985
 Frc consts  --      6.6535                 6.6804                 6.7460
 IR Inten    --      2.0594                18.6550                10.8588

 - Thermochemistry -
 -------------------
 Temperature   298.150 Kelvin.  Pressure   1.00000 Atm.
 Atom     1 has atomic number  6 and mass  12.00000

 Molecular mass:   168.09390 amu.
 Principal axes and moments of inertia in atomic units:
                           1         2         3
     Eigenvalues --   633.348044512.936594997.41092
           X            1.00000   0.00010  -0.00022
           Y           -0.00010   1.00000   0.00019
           Z            0.00022  -0.00019   1.00000
 This molecule is an asymmetric top.
 Rotational symmetry number  1.
 Warning -- assumption of classical behavior for rotation
           may cause significant error
 Rotational temperatures (Kelvin)      0.13676     0.01919     0.01733
 Rotational constants (GHZ):           2.84953     0.39990     0.36114
 Zero-point vibrational energy     552075.9 (Joules/Mol)
                                  131.94931 (Kcal/Mol)
 Warning -- explicit consideration of  14 degrees of freedom as
           vibrations may cause significant error
 Vibrational temperatures:     39.65   103.13   105.53   160.60   282.99
          (Kelvin)            421.91   426.39   507.98   595.40   599.46
                              610.21   736.82   810.33   820.51   909.46
                              946.22  1038.70  1041.74  1072.31  1135.27
                             1195.48  1234.20  1253.26  1261.49  1370.07
                             1419.81  1429.72  1437.18  1455.47  1461.90
                             1468.68  1484.68  1518.83  1535.72  1549.61
                             1603.86  1646.91  1695.46  1735.12  1749.12
                             1801.97  1858.37  1890.73  1904.90  1931.06
                             1952.49  2034.95  2081.14  2140.44  2146.05
                             2160.65  2210.74  2264.23  2352.54  2384.37
                             2415.60  2432.15  4406.07  4495.67  4532.06
                             4590.55  4591.83  4601.65  4607.93  4619.44
                             4619.88  4624.86  4630.46  4644.97

 Zero-point correction=                           0.210275 (Hartree/Particle)
 Thermal correction to Energy=                    0.221003
 Thermal correction to Enthalpy=                  0.221947
 Thermal correction to Gibbs Free Energy=         0.172451
 Sum of electronic and zero-point Energies=           -502.368133
 Sum of electronic and thermal Energies=              -502.357405
 Sum of electronic and thermal Enthalpies=            -502.356461
 Sum of electronic and thermal Free Energies=         -502.405957

                     E (Thermal)             CV                S
                      KCal/Mol        Cal/Mol-Kelvin    Cal/Mol-Kelvin
 Total                  138.681             42.052            104.174
 Electronic               0.000              0.000              0.000
 Translational            0.889              2.981             41.266
 Rotational               0.889              2.981             31.036
 Vibrational            136.904             36.090             31.872
 Vibration     1          0.593              1.984              5.998
 Vibration     2          0.598              1.968              4.107
 Vibration     3          0.599              1.967              4.061
 Vibration     4          0.607              1.940              3.240
 Vibration     5          0.636              1.845              2.164
 Vibration     6          0.688              1.686              1.455
 Vibration     7          0.690              1.681              1.437
 Vibration     8          0.729              1.569              1.152
 Vibration     9          0.777              1.440              0.913
 Vibration    10          0.780              1.434              0.903
 Vibration    11          0.786              1.418              0.878
 Vibration    12          0.867              1.223              0.629
 Vibration    13          0.919              1.111              0.517
 Vibration    14          0.926              1.096              0.504

                           ! Non-Optimized Parameters !
 Normal termination of Gaussian 16 at Tue Nov 14 11:24:58 2023.
