 Gaussian 16, Revision C.01,
 Gaussian 16:  ES64L-G16RevC.01  3-Jul-2019

 -----------------------------------------
 # opt freq=noraman m062x def2tzvp pop=nbo
 -----------------------------------------

 ------------
 Structure697
 ------------
 Symbolic Z-matrix:
 Charge =  0 Multiplicity = 1

 SCF Done:  E(RM062X) =  -694.310282211     A.U. after   13 cycles
 SCF Done:  E(RM062X) =  -694.311431428     A.U. after   10 cycles
 SCF Done:  E(RM062X) =  -694.311469571     A.U. after    8 cycles
 SCF Done:  E(RM062X) =  -694.311471905     A.U. after    7 cycles
 Optimization completed.
    -- Stationary point found.
 Normal termination of Gaussian 16 at Tue Nov 14 11:20:13 2023.

 --------------------------------------------------------------------
 #N Geom=AllCheck Guess=TCheck SCRF=Check GenChk RM062X/def2TZVP Freq
 --------------------------------------------------------------------

 Structure from the checkpoint file:  "ph_4ph_3_1_m062x.chk"
 ------------
 Structure697
 ------------
 Charge =  0 Multiplicity = 1

                         Standard orientation:
 ---------------------------------------------------------------------
 Center     Atomic      Atomic             Coordinates (Angstroms)
 Number     Number       Type             X           Y           Z
 ---------------------------------------------------------------------
      1          6           0       -3.604656    1.173845   -0.243077
      2          6           0       -4.991071    1.174331   -0.243507
      3          6           0       -5.689965   -0.000002    0.000000
      4          6           0       -4.991074   -1.174331    0.243506
      5          6           0       -3.604654   -1.173845    0.243077
      6          6           0       -2.890720   -0.000003    0.000001
      7          1           0       -6.772067    0.000002   -0.000000
      8          1           0       -3.066019   -2.088494    0.457999
      9          1           0       -5.527369    2.093262   -0.442632
     10          1           0       -3.066015    2.088489   -0.458000
     11          6           0        1.410565    0.000004   -0.000001
     12          6           0        0.692197   -1.068683   -0.536144
     13          6           0       -0.692195   -1.068686   -0.536144
     14          6           0       -1.410566    0.000001   -0.000000
     15          6           0       -0.692197    1.068688    0.536144
     16          6           0        0.692195    1.068689    0.536144
     17          1           0        1.226207   -1.895391   -0.988190
     18          1           0       -1.226204   -1.895394   -0.988188
     19          1           0       -1.226208    1.895394    0.988190
     20          1           0        1.226203    1.895396    0.988192
     21          1           0       -5.527366   -2.093266    0.442631
     22          6           0        5.689965   -0.000003    0.000000
     23          6           0        4.991077    1.174328   -0.243507
     24          6           0        3.604657    1.173844   -0.243077
     25          6           0        2.890720    0.000004    0.000001
     26          6           0        3.604653   -1.173844    0.243078
     27          6           0        4.991068   -1.174334    0.243507
     28          1           0        6.772067   -0.000009   -0.000000
     29          1           0        5.527371    2.093261   -0.442634
     30          1           0        3.066025    2.088494   -0.458001
     31          1           0        3.066011   -2.088488    0.458000
     32          1           0        5.527363   -2.093267    0.442632
 ---------------------------------------------------------------------

 SCF Done:  E(RM062X) =  -694.311471905     A.U. after    1 cycles

 The electronic state is 1-A.
 Alpha  occ. eigenvalues --  -10.55328 -10.55327 -10.55279 -10.55277 -10.54391
 Alpha  occ. eigenvalues --  -10.54384 -10.54324 -10.54324 -10.54311 -10.54310
 Alpha  occ. eigenvalues --  -10.54306 -10.54304 -10.54230 -10.54230 -10.54220
 Alpha  occ. eigenvalues --  -10.54219 -10.54154 -10.54154  -0.98538  -0.97064
 Alpha  occ. eigenvalues --   -0.95291  -0.89265  -0.85312  -0.85156  -0.84674
 Alpha  occ. eigenvalues --   -0.84140  -0.80622  -0.72174  -0.71316  -0.69192
 Alpha  occ. eigenvalues --   -0.68012  -0.67110  -0.65416  -0.61611  -0.59785
 Alpha  occ. eigenvalues --   -0.55968  -0.54824  -0.54459  -0.51945  -0.51804
 Alpha  occ. eigenvalues --   -0.51003  -0.50503  -0.49593  -0.49001  -0.48730
 Alpha  occ. eigenvalues --   -0.48529  -0.45305  -0.44857  -0.44306  -0.43018
 Alpha  occ. eigenvalues --   -0.41720  -0.40840  -0.40249  -0.39294  -0.39196
 Alpha  occ. eigenvalues --   -0.34789  -0.31321  -0.31170  -0.31159  -0.30897
 Alpha  occ. eigenvalues --   -0.26901
 Alpha virt. eigenvalues --   -0.01803   0.01465   0.01888   0.02209   0.02435
 Alpha virt. eigenvalues --    0.06467   0.08197   0.08299   0.09271   0.09518
 Alpha virt. eigenvalues --    0.10608   0.11357   0.12149   0.12712   0.13533

 Mulliken charges:
               1
     1  C   -0.215073
     2  C   -0.150870
     3  C   -0.148921
     4  C   -0.150870
     5  C   -0.215072
     6  C    0.111832
     7  H    0.142790
     8  H    0.166220
     9  H    0.143202
    10  H    0.166220
    11  C    0.104943
    12  C   -0.216207
    13  C   -0.216207
    14  C    0.104944
    15  C   -0.216207
    16  C   -0.216207
    17  H    0.167406
    18  H    0.167405
    19  H    0.167406
    20  H    0.167405
    21  H    0.143202
    22  C   -0.148921
    23  C   -0.150870
    24  C   -0.215072
    25  C    0.111831
    26  C   -0.215073
    27  C   -0.150870
    28  H    0.142790
    29  H    0.143202
    30  H    0.166220
    31  H    0.166220
    32  H    0.143202
 Sum of Mulliken charges =  -0.00000

 Dipole moment (field-independent basis, Debye):
    X=             -0.0000    Y=             -0.0000    Z=             -0.0000  Tot=              0.0000
 Quadrupole moment (field-independent basis, Debye-Ang):
   XX=            -91.6662   YY=            -94.0303   ZZ=           -112.4897
   XY=             -0.0000   XZ=             -0.0000   YZ=             -0.1985

  Exact polarizability:     343.594      -0.001     189.928      -0.001      -1.316     111.746
 Approx polarizability:     353.851       0.000     283.395      -0.000       0.187     162.825

 Summary of Natural Population Analysis:

                                       Natural Population
                Natural  -----------------------------------------------
    Atom  No    Charge         Core      Valence    Rydberg      Total
 -----------------------------------------------------------------------
      C    1   -0.19714      1.99914     4.17965    0.01834     6.19714
      C    2   -0.20425      1.99923     4.18643    0.01859     6.20425
      C    3   -0.21337      1.99922     4.19558    0.01857     6.21337
      C    4   -0.20425      1.99923     4.18643    0.01859     6.20425
      C    5   -0.19714      1.99914     4.17965    0.01834     6.19714
      C    6   -0.05078      1.99910     4.03129    0.02040     6.05078
      H    7    0.21357      0.00000     0.78539    0.00104     0.78643
      H    8    0.21392      0.00000     0.78482    0.00127     0.78608
      H    9    0.21353      0.00000     0.78540    0.00106     0.78647
      H   10    0.21392      0.00000     0.78482    0.00127     0.78608
      C   11   -0.05174      1.99910     4.03254    0.02010     6.05174
      C   12   -0.19008      1.99915     4.17275    0.01818     6.19008
      C   13   -0.19008      1.99915     4.17275    0.01818     6.19008
      C   14   -0.05174      1.99910     4.03254    0.02010     6.05174
      C   15   -0.19008      1.99915     4.17275    0.01818     6.19008
      C   16   -0.19008      1.99915     4.17275    0.01818     6.19008
      H   17    0.21517      0.00000     0.78360    0.00122     0.78483
      H   18    0.21517      0.00000     0.78360    0.00122     0.78483
      H   19    0.21517      0.00000     0.78360    0.00122     0.78483
      H   20    0.21517      0.00000     0.78360    0.00122     0.78483
      H   21    0.21353      0.00000     0.78540    0.00106     0.78647
      C   22   -0.21337      1.99922     4.19558    0.01857     6.21337
      C   23   -0.20425      1.99923     4.18643    0.01859     6.20425
      C   24   -0.19714      1.99914     4.17965    0.01834     6.19714
      C   25   -0.05078      1.99910     4.03129    0.02040     6.05078
      C   26   -0.19714      1.99914     4.17965    0.01834     6.19714
      C   27   -0.20425      1.99923     4.18643    0.01859     6.20425
      H   28    0.21357      0.00000     0.78539    0.00104     0.78643
      H   29    0.21353      0.00000     0.78540    0.00106     0.78647
      H   30    0.21392      0.00000     0.78482    0.00127     0.78608
      H   31    0.21392      0.00000     0.78482    0.00127     0.78608
      H   32    0.21353      0.00000     0.78541    0.00106     0.78647
 =======================================================================
   * Total *   -0.00000     35.98491    85.66020    0.35489   122.00000

                      1                      2                      3
                      A                      A                      A
 Frequencies --     38.7712                50.6206                72.3184
 Red. masses --      5.3632                 3.6523                 4.9200
 Frc consts  --      0.0048                 0.0055                 0.0152
 IR Inten    --      0.2480                 0.0026                 0.1694

                      4                      5                      6
                      A                      A                      A
 Frequencies --     87.6133               113.4844               154.8367
 Red. masses --      3.7303                 4.8224                 4.3788
 Frc consts  --      0.0169                 0.0366                 0.0619
 IR Inten    --      0.0000                 0.0000                 0.0000

                      7                      8                      9
                      A                      A                      A
 Frequencies --    217.1267               229.7364               341.1016
 Red. masses --      6.7249                 4.7408                 4.3037
 Frc consts  --      0.1868                 0.1474                 0.2950
 IR Inten    --      0.0000                 0.9441                 0.0000

                     10                     11                     12
                      A                      A                      A
 Frequencies --    345.0537               409.7980               415.3676
 Red. masses --      4.5023                 5.4026                 2.9259
 Frc consts  --      0.3158                 0.5346                 0.2974
 IR Inten    --      0.5343                 2.4178                 1.6219

                     13                     14                     15
                      A                      A                      A
 Frequencies --    418.5653               429.5749               462.6894
 Red. masses --      2.9228                 3.2683                 4.3239
 Frc consts  --      0.3017                 0.3553                 0.5454
 IR Inten    --      0.0000                 0.0234                 0.0000

                     16                     17                     18
                      A                      A                      A
 Frequencies --    498.5550               545.9600               586.8254
 Red. masses --      3.5357                 3.1801                 2.3915
 Frc consts  --      0.5178                 0.5585                 0.4852
 IR Inten    --     17.5016                 0.0000                 6.2401

                     19                     20                     21
                      A                      A                      A
 Frequencies --    625.0082               629.3869               634.1543
 Red. masses --      7.1400                 6.4798                 6.0974
 Frc consts  --      1.6433                 1.5123                 1.4447
 IR Inten    --      0.0000                 0.0000                 0.2899

                     22                     23                     24
                      A                      A                      A
 Frequencies --    656.1799               715.7158               722.4972
 Red. masses --      6.6931                 5.7720                 1.7316
 Frc consts  --      1.6979                 1.7420                 0.5326
 IR Inten    --      0.0000                 8.9257                75.2376

                     25                     26                     27
                      A                      A                      A
 Frequencies --    722.8186               758.0898               781.5776
 Red. masses --      1.6907                 2.8723                 1.7517
 Frc consts  --      0.5204                 0.9726                 0.6304
 IR Inten    --      0.0002                 0.0000               103.5174

                     28                     29                     30
                      A                      A                      A
 Frequencies --    798.1310               807.2814               870.9286
 Red. masses --      5.9093                 2.2609                 1.2453
 Frc consts  --      2.2179                 0.8681                 0.5565
 IR Inten    --      0.0000                 0.0000                 0.0000

                     31                     32                     33
                      A                      A                      A
 Frequencies --    873.5001               873.7062               880.1995
 Red. masses --      1.2481                 1.2457                 1.6465
 Frc consts  --      0.5611                 0.5603                 0.7516
 IR Inten    --      0.2112                 0.0000                23.4875

                     34                     35                     36
                      A                      A                      A
 Frequencies --    951.3161               954.7117               996.1336
 Red. masses --      1.4233                 1.4929                 1.3650
 Frc consts  --      0.7589                 0.8017                 0.7980
 IR Inten    --      0.0000                 2.3553                 1.5761

                     37                     38                     39
                      A                      A                      A
 Frequencies --    996.3910               996.9362               998.7910
 Red. masses --      1.3898                 1.3781                 1.3879
 Frc consts  --      0.8130                 0.8070                 0.8157
 IR Inten    --      0.0018                 0.0002                 0.5364

                     40                     41                     42
                      A                      A                      A
 Frequencies --   1014.9881              1015.2643              1018.1897
 Red. masses --      1.2956                 1.2985                 6.3644
 Frc consts  --      0.7864                 0.7886                 3.8875
 IR Inten    --      0.1536                 0.0000                 9.1053

                     43                     44                     45
                      A                      A                      A
 Frequencies --   1021.6762              1028.9571              1039.4234
 Red. masses --      5.8057                 4.8972                 6.8676
 Frc consts  --      3.5705                 3.0549                 4.3716
 IR Inten    --      0.0000                 5.1173                 0.0000

                     46                     47                     48
                      A                      A                      A
 Frequencies --   1060.5230              1073.7529              1080.2003
 Red. masses --      2.5906                 1.9053                 1.7056
 Frc consts  --      1.7167                 1.2943                 1.1726
 IR Inten    --      5.2612                 0.0000                 1.0924

                     49                     50                     51
                      A                      A                      A
 Frequencies --   1114.1976              1114.6548              1144.3928
 Red. masses --      1.5174                 1.5084                 1.3378
 Frc consts  --      1.1099                 1.1042                 1.0323
 IR Inten    --      8.4365                 0.0000                 4.8246

                     52                     53                     54
                      A                      A                      A
 Frequencies --   1178.0040              1178.2624              1204.0085
 Red. masses --      1.1493                 1.1468                 1.1144
 Frc consts  --      0.9397                 0.9380                 0.9518
 IR Inten    --      0.0000                 0.0447                 0.0000

                     55                     56                     57
                      A                      A                      A
 Frequencies --   1207.2770              1217.3031              1281.5600
 Red. masses --      1.1199                 1.1122                 4.7583
 Frc consts  --      0.9617                 0.9710                 4.6045
 IR Inten    --      1.8278                 0.0000                 1.3156

                     58                     59                     60
                      A                      A                      A
 Frequencies --   1302.2677              1314.6082              1320.1164
 Red. masses --      2.9206                 6.1542                 2.4347
 Frc consts  --      2.9182                 6.2663                 2.4999
 IR Inten    --      0.0000                 0.2856                 0.3095

                     61                     62                     63
                      A                      A                      A
 Frequencies --   1327.7843              1339.7196              1353.2582
 Red. masses --      4.6041                 1.5101                 1.4190
 Frc consts  --      4.7824                 1.5969                 1.5311
 IR Inten    --      0.0000                 0.0000                 0.0000

                     64                     65                     66
                      A                      A                      A
 Frequencies --   1357.9443              1443.3233              1487.0850
 Red. masses --      1.4767                 2.7404                 2.3053
 Frc consts  --      1.6043                 3.3635                 3.0036
 IR Inten    --      1.5309                 9.7190                 0.0000

                     67                     68                     69
                      A                      A                      A
 Frequencies --   1499.2566              1528.9691              1543.8032
 Red. masses --      2.5405                 2.1917                 2.4695
 Frc consts  --      3.3644                 3.0187                 3.4677
 IR Inten    --      6.9330                71.6814                 0.0000

                     70                     71                     72
                      A                      A                      A
 Frequencies --   1575.1331              1623.1019              1652.1704
 Red. masses --      3.0986                 5.9931                 5.9574
 Frc consts  --      4.5295                 9.3023                 9.5811
 IR Inten    --      2.8319                 0.0000                 3.7626

                     73                     74                     75
                      A                      A                      A
 Frequencies --   1658.2115              1677.6878              1678.0820
 Red. masses --      6.6329                 6.0209                 6.0608
 Frc consts  --     10.7457                 9.9847                10.0556
 IR Inten    --      0.0000                 0.0000                22.3407

                     76                     77                     78
                      A                      A                      A
 Frequencies --   1685.2256              3198.6031              3199.9279
 Red. masses --      6.2918                 1.0864                 1.0854
 Frc consts  --     10.5278                 6.5489                 6.5482
 IR Inten    --      0.0000                26.1242                 0.0000

                     79                     80                     81
                      A                      A                      A
 Frequencies --   3200.0213              3201.6785              3203.9862
 Red. masses --      1.0877                 1.0863                 1.0881
 Frc consts  --      6.5622                 6.5606                 6.5812
 IR Inten    --      0.0000                 1.5190                 0.4694

                     82                     83                     84
                      A                      A                      A
 Frequencies --   3205.7415              3212.3151              3213.2667
 Red. masses --      1.0874                 1.0915                 1.0911
 Frc consts  --      6.5842                 6.6362                 6.6377
 IR Inten    --      0.0000                 0.0000                 6.6790

                     85                     86                     87
                      A                      A                      A
 Frequencies --   3215.8473              3218.8222              3220.1960
 Red. masses --      1.0941                 1.0946                 1.0947
 Frc consts  --      6.6663                 6.6822                 6.6884
 IR Inten    --      4.4093                 0.0000                 0.0001

                     88                     89                     90
                      A                      A                      A
 Frequencies --   3220.4317              3229.8294              3229.9333
 Red. masses --      1.0946                 1.0986                 1.0986
 Frc consts  --      6.6887                 6.7523                 6.7526
 IR Inten    --     33.8488                24.7352                 0.0000

 - Thermochemistry -
 -------------------
 Temperature   298.150 Kelvin.  Pressure   1.00000 Atm.
 Atom     1 has atomic number  6 and mass  12.00000

 Molecular mass:   230.10955 amu.
 Principal axes and moments of inertia in atomic units:
                           1         2         3
     Eigenvalues --   935.39410********************
           X            1.00000  -0.00000  -0.00000
           Y            0.00000   1.00000  -0.00019
           Z            0.00000   0.00019   1.00000
 This molecule is an asymmetric top.
 Rotational symmetry number  1.
 Warning -- assumption of classical behavior for rotation
           may cause significant error
 Rotational temperatures (Kelvin)      0.09260     0.00769     0.00721
 Rotational constants (GHZ):           1.92939     0.16032     0.15022
 Zero-point vibrational energy     693788.8 (Joules/Mol)
                                  165.81951 (Kcal/Mol)
 Warning -- explicit consideration of  18 degrees of freedom as
           vibrations may cause significant error
 Vibrational temperatures:     55.78    72.83   104.05   126.06   163.28
          (Kelvin)            222.78   312.40   330.54   490.77   496.46
                              589.61   597.62   602.22   618.06   665.71
                              717.31   785.51   844.31   899.25   905.55
                              912.41   944.10  1029.76  1039.51  1039.97
                             1090.72  1124.52  1148.33  1161.50  1253.07
                             1256.77  1257.07  1266.41  1368.73  1373.62
                             1433.21  1433.58  1434.37  1437.04  1460.34
                             1460.74  1464.95  1469.96  1480.44  1495.50
                             1525.86  1544.89  1554.17  1603.08  1603.74
                             1646.53  1694.88  1695.26  1732.30  1737.00
                             1751.43  1843.88  1873.67  1891.43  1899.35
                             1910.39  1927.56  1947.04  1953.78  2076.62
                             2139.58  2157.10  2199.85  2221.19  2266.27
                             2335.28  2377.10  2385.80  2413.82  2414.39
                             2424.66  4602.08  4603.98  4604.12  4606.50
                             4609.82  4612.35  4621.80  4623.17  4626.89
                             4631.17  4633.14  4633.48  4647.00  4647.15

 Zero-point correction=                           0.264250 (Hartree/Particle)
 Thermal correction to Energy=                    0.277709
 Thermal correction to Enthalpy=                  0.278653
 Thermal correction to Gibbs Free Energy=         0.222893
 Sum of electronic and zero-point Energies=           -694.047222
 Sum of electronic and thermal Energies=              -694.033763
 Sum of electronic and thermal Enthalpies=            -694.032819
 Sum of electronic and thermal Free Energies=         -694.088579

                     E (Thermal)             CV                S
                      KCal/Mol        Cal/Mol-Kelvin    Cal/Mol-Kelvin
 Total                  174.265             55.038            117.357
 Electronic               0.000              0.000              0.000
 Translational            0.889              2.981             42.202
 Rotational               0.889              2.981             33.203
 Vibrational            172.488             49.076             41.952
 Vibration     1          0.594              1.981              5.321
 Vibration     2          0.595              1.977              4.793
 Vibration     3          0.598              1.967              4.089
 Vibration     4          0.601              1.958              3.713
 Vibration     5          0.607              1.938              3.208
 Vibration     6          0.620              1.897              2.612
 Vibration     7          0.646              1.815              1.983
 Vibration     8          0.652              1.796              1.881
 Vibration     9          0.721              1.593              1.207
 Vibration    10          0.723              1.585              1.189
 Vibration    11          0.774              1.449              0.927
 Vibration    12          0.779              1.437              0.908
 Vibration    13          0.781              1.430              0.897
 Vibration    14          0.791              1.406              0.860
 Vibration    15          0.820              1.333              0.758
 Vibration    16          0.854              1.253              0.662
 Vibration    17          0.901              1.149              0.553
 Vibration    18          0.944              1.060              0.473

 Optimization completed.
    -- Stationary point found.
 Normal termination of Gaussian 16 at Tue Nov 14 12:47:14 2023.
