 Gaussian 16, Revision C.01,
 Gaussian 16:  ES64L-G16RevC.01  3-Jul-2019

 -----------------------------------------------------------
 # opt freq=noraman m062x def2tzvp pop=nbo geom=connectivity
 -----------------------------------------------------------

 -------------------------------------------------------
 /Users/jolenereid/Desktop/ph_2phenanthryl_2_1_m062x.log
 -------------------------------------------------------
 Symbolic Z-matrix:
 Charge =  0 Multiplicity = 1

 SCF Done:  E(RM062X) =  -771.737983740     A.U. after   13 cycles
 SCF Done:  E(RM062X) =  -771.660820419     A.U. after   14 cycles
 SCF Done:  E(RM062X) =  -771.739980802     A.U. after   13 cycles
 SCF Done:  E(RM062X) =  -771.726340631     A.U. after   13 cycles
 SCF Done:  E(RM062X) =  -771.740353456     A.U. after   12 cycles
 SCF Done:  E(RM062X) =  -771.739976689     A.U. after   11 cycles
 SCF Done:  E(RM062X) =  -771.740577328     A.U. after   10 cycles
 SCF Done:  E(RM062X) =  -771.740595743     A.U. after    9 cycles
 SCF Done:  E(RM062X) =  -771.740603157     A.U. after    8 cycles
 SCF Done:  E(RM062X) =  -771.740603586     A.U. after    7 cycles
 Optimization completed.
    -- Stationary point found.
 Normal termination of Gaussian 16 at Tue Apr  9 21:17:44 2024.

 --------------------------------------------------------------------
 #N Geom=AllCheck Guess=TCheck SCRF=Check GenChk RM062X/def2TZVP Freq
 --------------------------------------------------------------------

 Structure from the checkpoint file:  "ph_9_10_dihydrophen_1_1_m062x.chk"
 -------------------------------------------------------
 /Users/jolenereid/Desktop/ph_2phenanthryl_2_1_m062x.log
 -------------------------------------------------------
 Charge =  0 Multiplicity = 1

                         Standard orientation:
 ---------------------------------------------------------------------
 Center     Atomic      Atomic             Coordinates (Angstroms)
 Number     Number       Type             X           Y           Z
 ---------------------------------------------------------------------
      1          6           0       -5.908666    0.030214   -0.000766
      2          6           0       -5.162950    0.895012   -0.789959
      3          6           0       -3.778880    0.814735   -0.796986
      4          6           0       -3.113552   -0.131598   -0.016618
      5          6           0       -3.874690   -0.995341    0.771954
      6          6           0       -5.258751   -0.915290    0.780510
      7          1           0       -6.988967    0.092651    0.005302
      8          1           0       -5.661183    1.629999   -1.409021
      9          1           0       -3.204485    1.476386   -1.433497
     10          1           0       -3.373807   -1.719193    1.402708
     11          1           0       -5.831468   -1.588427    1.405458
     12          6           0        0.395639   -1.520052    0.020548
     13          6           0       -0.986138   -1.449075    0.029126
     14          6           0       -1.635944   -0.216745   -0.025683
     15          6           0       -0.852980    0.935789   -0.075805
     16          1           0       -1.569477   -2.360645    0.062325
     17          1           0       -1.337167    1.906094   -0.080327
     18          6           0        1.176684   -0.367339   -0.046640
     19          6           0        0.532150    0.877513   -0.080877
     20          6           0        1.372760    2.126668   -0.119659
     21          6           0        2.614215    1.951267    0.748497
     22          6           0        3.375293    0.723017    0.323612
     23          6           0        2.654780   -0.412898   -0.074209
     24          1           0        0.783904    2.983713    0.208581
     25          1           0        3.258752    2.828901    0.690052
     26          6           0        3.354704   -1.545630   -0.488863
     27          6           0        4.763291    0.689313    0.322709
     28          6           0        4.740237   -1.568112   -0.486718
     29          6           0        5.449638   -0.449326   -0.074144
     30          1           0        6.531833   -0.458498   -0.073534
     31          1           0        0.872466   -2.489755    0.080441
     32          1           0        2.811532   -2.414256   -0.837791
     33          1           0        5.312157    1.570922    0.633165
     34          1           0        5.265191   -2.455194   -0.816351
     35          1           0        1.684019    2.321254   -1.151915
     36          1           0        2.305659    1.843304    1.794219
 ---------------------------------------------------------------------

 SCF Done:  E(RM062X) =  -771.740603586     A.U. after    1 cycles

 The electronic state is 1-A.
 Alpha  occ. eigenvalues --  -10.55195 -10.55073 -10.54925 -10.54893 -10.54835
 Alpha  occ. eigenvalues --  -10.54757 -10.54220 -10.54204 -10.54134 -10.54116
 Alpha  occ. eigenvalues --  -10.54105 -10.54078 -10.54051 -10.54028 -10.54020
 Alpha  occ. eigenvalues --  -10.53967 -10.53927 -10.53907 -10.53837 -10.53812
 Alpha  occ. eigenvalues --   -0.99128  -0.97210  -0.95225  -0.91037  -0.88337
 Alpha  occ. eigenvalues --   -0.85576  -0.84821  -0.84444  -0.81291  -0.80629
 Alpha  occ. eigenvalues --   -0.72674  -0.72199  -0.70189  -0.68713  -0.67263
 Alpha  occ. eigenvalues --   -0.66023  -0.62871  -0.60603  -0.58915  -0.55946
 Alpha  occ. eigenvalues --   -0.55283  -0.54255  -0.53377  -0.52093  -0.51406
 Alpha  occ. eigenvalues --   -0.50173  -0.49201  -0.48954  -0.48654  -0.48495
 Alpha  occ. eigenvalues --   -0.46181  -0.45906  -0.44999  -0.44428  -0.43834
 Alpha  occ. eigenvalues --   -0.43588  -0.41374  -0.41079  -0.40444  -0.39766
 Alpha  occ. eigenvalues --   -0.37706  -0.37588  -0.34916  -0.31063  -0.30874
 Alpha  occ. eigenvalues --   -0.30527  -0.29923  -0.26038
 Alpha virt. eigenvalues --   -0.02045   0.01311   0.02078   0.02628   0.03112
 Alpha virt. eigenvalues --    0.06644   0.07820   0.08313   0.08679   0.09496
 Alpha virt. eigenvalues --    0.10070   0.11007   0.11531   0.11779   0.12481

 Mulliken charges:
               1
     1  C   -0.148662
     2  C   -0.151434
     3  C   -0.214980
     4  C    0.111256
     5  C   -0.216932
     6  C   -0.151802
     7  H    0.142379
     8  H    0.142898
     9  H    0.166233
    10  H    0.166273
    11  H    0.142974
    12  C   -0.202571
    13  C   -0.227298
    14  C    0.101622
    15  C   -0.243156
    16  H    0.164004
    17  H    0.169951
    18  C    0.087552
    19  C    0.052880
    20  C   -0.335403
    21  C   -0.327673
    22  C    0.044206
    23  C    0.086267
    24  H    0.147844
    25  H    0.147363
    26  C   -0.207083
    27  C   -0.166165
    28  C   -0.161393
    29  C   -0.152199
    30  H    0.140738
    31  H    0.143495
    32  H    0.144594
    33  H    0.134672
    34  H    0.140960
    35  H    0.164130
    36  H    0.164461
 Sum of Mulliken charges =  -0.00000

 Dipole moment (field-independent basis, Debye):
    X=              0.0747    Y=              0.5496    Z=              0.0898  Tot=              0.5619
 Quadrupole moment (field-independent basis, Debye-Ang):
   XX=           -105.2974   YY=           -107.2401   ZZ=           -121.2986
   XY=              0.9872   XZ=             -0.2415   YZ=             -1.6634

  Exact polarizability:     372.196      -4.834     206.116      -2.182      -5.202     135.761
 Approx polarizability:     390.176      -4.012     298.611      -3.007     -10.171     199.651

 Summary of Natural Population Analysis:

                                       Natural Population
                Natural  -----------------------------------------------
    Atom  No    Charge         Core      Valence    Rydberg      Total
 -----------------------------------------------------------------------
      C    1   -0.21388      1.99922     4.19622    0.01844     6.21388
      C    2   -0.20440      1.99923     4.18677    0.01840     6.20440
      C    3   -0.19727      1.99914     4.18024    0.01788     6.19727
      C    4   -0.04928      1.99910     4.03008    0.02010     6.04928
      C    5   -0.19696      1.99915     4.17979    0.01803     6.19696
      C    6   -0.20434      1.99923     4.18667    0.01844     6.20434
      H    7    0.21336      0.00000     0.78564    0.00101     0.78664
      H    8    0.21327      0.00000     0.78569    0.00104     0.78673
      H    9    0.21392      0.00000     0.78493    0.00115     0.78608
      H   10    0.21407      0.00000     0.78469    0.00124     0.78593
      H   11    0.21336      0.00000     0.78561    0.00103     0.78664
      C   12   -0.17976      1.99917     4.16285    0.01775     6.17976
      C   13   -0.19783      1.99915     4.18130    0.01739     6.19783
      C   14   -0.04186      1.99910     4.02357    0.01919     6.04186
      C   15   -0.19114      1.99905     4.17632    0.01577     6.19114
      H   16    0.21461      0.00000     0.78424    0.00114     0.78539
      H   17    0.20844      0.00000     0.78931    0.00225     0.79156
      C   18   -0.05836      1.99903     4.03893    0.02040     6.05836
      C   19    0.00758      1.99910     3.97530    0.01801     5.99242
      C   20   -0.40839      1.99940     4.39588    0.01311     6.40839
      C   21   -0.40890      1.99940     4.39632    0.01319     6.40890
      C   22   -0.00025      1.99910     3.98152    0.01963     6.00025
      C   23   -0.05786      1.99904     4.03785    0.02098     6.05786
      H   24    0.21537      0.00000     0.78348    0.00115     0.78463
      H   25    0.21501      0.00000     0.78378    0.00121     0.78499
      C   26   -0.18701      1.99916     4.16989    0.01795     6.18701
      C   27   -0.20334      1.99913     4.18639    0.01781     6.20334
      C   28   -0.21287      1.99923     4.19538    0.01827     6.21287
      C   29   -0.20436      1.99922     4.18670    0.01843     6.20436
      H   30    0.21295      0.00000     0.78604    0.00100     0.78705
      H   31    0.21153      0.00000     0.78720    0.00127     0.78847
      H   32    0.21031      0.00000     0.78836    0.00133     0.78969
      H   33    0.20928      0.00000     0.78951    0.00121     0.79072
      H   34    0.21308      0.00000     0.78590    0.00102     0.78692
      H   35    0.21596      0.00000     0.78243    0.00160     0.78404
      H   36    0.21595      0.00000     0.78242    0.00164     0.78405
 =======================================================================
   * Total *    0.00000     39.98335    95.63720    0.37945   136.00000

                      1                      2                      3
                      A                      A                      A
 Frequencies --     38.1240                53.2968                76.7379
 Red. masses --      5.2510                 3.7182                 4.8197
 Frc consts  --      0.0045                 0.0062                 0.0167
 IR Inten    --      0.1842                 0.0505                 0.1225

                      4                      5                      6
                      A                      A                      A
 Frequencies --    109.9313               122.2088               164.7588
 Red. masses --      4.0020                 3.9510                 3.9818
 Frc consts  --      0.0285                 0.0348                 0.0637
 IR Inten    --      0.0451                 0.0111                 0.5348

                      7                      8                      9
                      A                      A                      A
 Frequencies --    213.2201               220.1637               271.3863
 Red. masses --      3.0836                 5.3998                 3.2674
 Frc consts  --      0.0826                 0.1542                 0.1418
 IR Inten    --      3.1139                 0.6659                 0.1166

                     10                     11                     12
                      A                      A                      A
 Frequencies --    283.9046               338.8353               401.9889
 Red. masses --      4.2996                 3.1358                 3.5731
 Frc consts  --      0.2042                 0.2121                 0.3402
 IR Inten    --      0.3373                 0.3435                 1.2211

                     13                     14                     15
                      A                      A                      A
 Frequencies --    411.6831               418.3838               447.6644
 Red. masses --      4.1895                 2.9482                 4.2497
 Frc consts  --      0.4183                 0.3041                 0.5018
 IR Inten    --      0.7596                 0.2142                 2.3033

                     16                     17                     18
                      A                      A                      A
 Frequencies --    462.8987               480.7472               489.6546
 Red. masses --      3.3394                 3.2679                 3.8252
 Frc consts  --      0.4216                 0.4450                 0.5404
 IR Inten    --      1.9295                 1.0141                 5.8997

                     19                     20                     21
                      A                      A                      A
 Frequencies --    527.8641               546.4140               562.2875
 Red. masses --      4.2087                 3.3159                 5.0739
 Frc consts  --      0.6910                 0.5833                 0.9452
 IR Inten    --      1.4545                 6.0821                 0.4455

                     22                     23                     24
                      A                      A                      A
 Frequencies --    606.1841               631.6016               635.3880
 Red. masses --      2.8671                 6.4202                 6.5562
 Frc consts  --      0.6207                 1.5090                 1.5595
 IR Inten    --      1.4478                 0.0820                 0.1083

                     25                     26                     27
                      A                      A                      A
 Frequencies --    657.1846               706.2806               722.7884
 Red. masses --      3.2299                 4.9005                 1.7382
 Frc consts  --      0.8219                 1.4403                 0.5350
 IR Inten    --      0.4719                11.1854                36.4995

                     28                     29                     30
                      A                      A                      A
 Frequencies --    743.1240               762.2973               764.9098
 Red. masses --      5.0403                 1.9330                 2.7872
 Frc consts  --      1.6400                 0.6618                 0.9608
 IR Inten    --      2.0620                23.2526                 4.9159

                     31                     32                     33
                      A                      A                      A
 Frequencies --    787.1728               802.5857               808.9890
 Red. masses --      1.7552                 2.9724                 2.2323
 Frc consts  --      0.6408                 1.1281                 0.8608
 IR Inten    --     70.2546                 8.1310                 8.9990

                     34                     35                     36
                      A                      A                      A
 Frequencies --    871.4545               875.8102               876.1295
 Red. masses --      1.5008                 1.7818                 2.0817
 Frc consts  --      0.6715                 0.8052                 0.9415
 IR Inten    --     11.4764                 1.5276                 1.1344

                     37                     38                     39
                      A                      A                      A
 Frequencies --    902.7027               918.5738               930.1501
 Red. masses --      1.3846                 2.3705                 1.3948
 Frc consts  --      0.6648                 1.1785                 0.7110
 IR Inten    --      0.1843                 0.8492                 7.7191

                     40                     41                     42
                      A                      A                      A
 Frequencies --    957.6750               975.1486               991.0344
 Red. masses --      1.5059                 1.3906                 1.3841
 Frc consts  --      0.8137                 0.7791                 0.8009
 IR Inten    --      0.9873                 0.9042                 0.1504

                     43                     44                     45
                      A                      A                      A
 Frequencies --    998.7797              1003.9198              1004.6818
 Red. masses --      1.3761                 1.6388                 1.6011
 Frc consts  --      0.8088                 0.9731                 0.9522
 IR Inten    --      0.2548                 0.5195                 0.3841

                     46                     47                     48
                      A                      A                      A
 Frequencies --   1015.4896              1021.8623              1030.7115
 Red. masses --      1.2939                 5.6692                 6.9907
 Frc consts  --      0.7862                 3.4879                 4.3757
 IR Inten    --      0.0578                 1.1014                 3.8591

                     49                     50                     51
                      A                      A                      A
 Frequencies --   1060.3658              1061.9015              1082.7427
 Red. masses --      2.7010                 2.2061                 1.9613
 Frc consts  --      1.7893                 1.4657                 1.3547
 IR Inten    --      5.2788                 1.3711                 3.2809

                     52                     53                     54
                      A                      A                      A
 Frequencies --   1086.7111              1114.0084              1132.1857
 Red. masses --      2.0185                 1.5173                 2.1850
 Frc consts  --      1.4045                 1.1094                 1.6502
 IR Inten    --      0.1560                 4.5911                 3.4778

                     55                     56                     57
                      A                      A                      A
 Frequencies --   1169.0994              1177.3291              1181.3354
 Red. masses --      1.3766                 1.1496                 1.2024
 Frc consts  --      1.1086                 0.9388                 0.9887
 IR Inten    --      0.4374                 0.0162                 1.9676

                     58                     59                     60
                      A                      A                      A
 Frequencies --   1187.0972              1207.8168              1210.1192
 Red. masses --      1.1637                 1.1267                 1.6877
 Frc consts  --      0.9662                 0.9684                 1.4561
 IR Inten    --      0.6898                 1.0960                 0.8945

                     61                     62                     63
                      A                      A                      A
 Frequencies --   1225.2766              1231.6752              1280.4046
 Red. masses --      1.3860                 1.9022                 2.4810
 Frc consts  --      1.2260                 1.7002                 2.3965
 IR Inten    --      2.0158                 0.8282                 2.8403

                     64                     65                     66
                      A                      A                      A
 Frequencies --   1293.7507              1308.6710              1318.2822
 Red. masses --      2.2377                 2.8737                 2.6791
 Frc consts  --      2.2067                 2.8997                 2.7432
 IR Inten    --      1.1287                 0.2796                 2.1999

                     67                     68                     69
                      A                      A                      A
 Frequencies --   1321.0625              1333.7889              1335.0133
 Red. masses --      2.8590                 2.9202                 1.7579
 Frc consts  --      2.9398                 3.0609                 1.8459
 IR Inten    --      0.8084                 0.8095                 3.9230

                     70                     71                     72
                      A                      A                      A
 Frequencies --   1355.1663              1362.4506              1382.1589
 Red. masses --      1.5495                 1.7422                 1.6721
 Frc consts  --      1.6766                 1.9054                 1.8820
 IR Inten    --      1.6751                 0.3724                 1.3211

                     73                     74                     75
                      A                      A                      A
 Frequencies --   1456.5379              1475.3561              1482.9569
 Red. masses --      3.1660                 1.1252                 1.1292
 Frc consts  --      3.9573                 1.4430                 1.4631
 IR Inten    --      9.0573                 6.3499                 5.4853

                     76                     77                     78
                      A                      A                      A
 Frequencies --   1491.9398              1501.1347              1529.4476
 Red. masses --      2.3881                 2.4977                 2.5792
 Frc consts  --      3.1319                 3.3161                 3.5547
 IR Inten    --      5.3708                18.6976                53.4730

                     79                     80                     81
                      A                      A                      A
 Frequencies --   1539.7507              1563.5282              1624.2953
 Red. masses --      2.6306                 3.3196                 5.9107
 Frc consts  --      3.6746                 4.7813                 9.1880
 IR Inten    --      3.2586                 0.6773                 1.0600

                     82                     83                     84
                      A                      A                      A
 Frequencies --   1651.5176              1659.0622              1676.9252
 Red. masses --      6.1890                 7.1631                 6.0421
 Frc consts  --      9.9457                11.6165                10.0108
 IR Inten    --      2.4100                 0.4835                 5.8955

                     85                     86                     87
                      A                      A                      A
 Frequencies --   1678.0051              1685.4300              3038.0572
 Red. masses --      6.2898                 6.7794                 1.0698
 Frc consts  --     10.4345                11.3466                 5.8178
 IR Inten    --     11.6653                 2.3525                11.2935

                     88                     89                     90
                      A                      A                      A
 Frequencies --   3048.8967              3115.3821              3116.5022
 Red. masses --      1.0649                 1.0944                 1.0970
 Frc consts  --      5.8325                 6.2583                 6.2777
 IR Inten    --     19.8221                24.5874                15.5843

                     91                     92                     93
                      A                      A                      A
 Frequencies --   3191.8161              3192.6433              3199.6519
 Red. masses --      1.0901                 1.0879                 1.0854
 Frc consts  --      6.5430                 6.5333                 6.5472
 IR Inten    --      8.6643                 7.4175                 5.0719

                     94                     95                     96
                      A                      A                      A
 Frequencies --   3203.2555              3204.9682              3207.9433
 Red. masses --      1.0877                 1.0876                 1.0880
 Frc consts  --      6.5755                 6.5821                 6.5969
 IR Inten    --      3.6663                 2.5734                 5.7578

                     97                     98                     99
                      A                      A                      A
 Frequencies --   3213.0632              3217.2716              3219.7736
 Red. masses --      1.0911                 1.0929                 1.0946
 Frc consts  --      6.6370                 6.6652                 6.6860
 IR Inten    --      1.9236                 7.3600                13.5631

                    100                    101                    102
                      A                      A                      A
 Frequencies --   3224.6673              3229.3650              3229.9219
 Red. masses --      1.0949                 1.0983                 1.0958
 Frc consts  --      6.7078                 6.7487                 6.7356
 IR Inten    --      7.1691                18.9606                 9.7504

 - Thermochemistry -
 -------------------
 Temperature   298.150 Kelvin.  Pressure   1.00000 Atm.
 Atom     1 has atomic number  6 and mass  12.00000

 Molecular mass:   256.12520 amu.
 Principal axes and moments of inertia in atomic units:
                           1         2         3
     Eigenvalues --  1484.03075********************
           X            1.00000   0.00165   0.00016
           Y           -0.00165   0.99999  -0.00432
           Z           -0.00016   0.00432   0.99999
 This molecule is an asymmetric top.
 Rotational symmetry number  1.
 Warning -- assumption of classical behavior for rotation
           may cause significant error
 Rotational temperatures (Kelvin)      0.05836     0.00735     0.00674
 Rotational constants (GHZ):           1.21611     0.15307     0.14049
 Zero-point vibrational energy     789130.2 (Joules/Mol)
                                  188.60664 (Kcal/Mol)
 Warning -- explicit consideration of  22 degrees of freedom as
           vibrations may cause significant error
 Vibrational temperatures:     54.85    76.68   110.41   158.17   175.83
          (Kelvin)            237.05   306.78   316.77   390.46   408.48
                              487.51   578.37   592.32   601.96   644.09
                              666.01   691.69   704.50   759.48   786.17
                              809.01   872.16   908.73   914.18   945.54
                             1016.18  1039.93  1069.19  1096.78  1100.53
                             1132.57  1154.74  1163.95  1253.83  1260.10
                             1260.55  1298.79  1321.62  1338.28  1377.88
                             1403.02  1425.88  1437.02  1444.42  1445.51
                             1461.06  1470.23  1482.96  1525.63  1527.84
                             1557.83  1563.53  1602.81  1628.96  1682.07
                             1693.91  1699.68  1707.97  1737.78  1741.09
                             1762.90  1772.11  1842.22  1861.42  1882.89
                             1896.71  1900.71  1919.02  1920.79  1949.78
                             1960.26  1988.62  2095.63  2122.71  2133.64
                             2146.57  2159.80  2200.53  2215.36  2249.57
                             2337.00  2376.17  2387.02  2412.72  2414.28
                             2424.96  4371.09  4386.68  4482.34  4483.95
                             4592.31  4593.50  4603.59  4608.77  4611.23
                             4615.51  4622.88  4628.94  4632.54  4639.58
                             4646.34  4647.14

 Zero-point correction=                           0.300564 (Hartree/Particle)
 Thermal correction to Energy=                    0.315105
 Thermal correction to Enthalpy=                  0.316049
 Thermal correction to Gibbs Free Energy=         0.258486
 Sum of electronic and zero-point Energies=           -771.440040
 Sum of electronic and thermal Energies=              -771.425499
 Sum of electronic and thermal Enthalpies=            -771.424554
 Sum of electronic and thermal Free Energies=         -771.482117

                     E (Thermal)             CV                S
                      KCal/Mol        Cal/Mol-Kelvin    Cal/Mol-Kelvin
 Total                  197.731             60.966            121.151
 Electronic               0.000              0.000              0.000
 Translational            0.889              2.981             42.521
 Rotational               0.889              2.981             33.774
 Vibrational            195.954             55.005             44.856
 Vibration     1          0.594              1.982              5.354
 Vibration     2          0.596              1.976              4.691
 Vibration     3          0.599              1.965              3.973
 Vibration     4          0.606              1.941              3.270
 Vibration     5          0.610              1.931              3.065
 Vibration     6          0.623              1.886              2.494
 Vibration     7          0.644              1.821              2.016
 Vibration     8          0.647              1.810              1.958
 Vibration     9          0.675              1.726              1.587
 Vibration    10          0.682              1.704              1.510
 Vibration    11          0.719              1.598              1.218
 Vibration    12          0.768              1.466              0.955
 Vibration    13          0.776              1.445              0.921
 Vibration    14          0.781              1.430              0.897
 Vibration    15          0.807              1.366              0.803
 Vibration    16          0.821              1.332              0.758
 Vibration    17          0.837              1.293              0.708
 Vibration    18          0.845              1.273              0.684
 Vibration    19          0.883              1.188              0.592
 Vibration    20          0.902              1.148              0.552
 Vibration    21          0.918              1.113              0.519
 Vibration    22          0.965              1.019              0.439

 Optimization completed.
    -- Stationary point found.
 Normal termination of Gaussian 16 at Tue Apr  9 22:13:18 2024.
