 Gaussian 16, Revision C.01,
 Gaussian 16:  ES64L-G16RevC.01  3-Jul-2019

 -----------------------------------------
 # opt freq=noraman m062x def2tzvp pop=nbo
 -----------------------------------------

 ------------
 Structure697
 ------------
 Symbolic Z-matrix:
 Charge =  0 Multiplicity = 1

 SCF Done:  E(RM062X) =  -927.761910411     A.U. after   14 cycles
 SCF Done:  E(RM062X) =  -927.764768530     A.U. after   12 cycles
 SCF Done:  E(RM062X) =  -927.765102742     A.U. after   12 cycles
 SCF Done:  E(RM062X) =  -927.765147579     A.U. after   10 cycles
 SCF Done:  E(RM062X) =  -927.765151985     A.U. after    8 cycles
 SCF Done:  E(RM062X) =  -927.765154248     A.U. after    9 cycles
 SCF Done:  E(RM062X) =  -927.765154876     A.U. after    7 cycles
 SCF Done:  E(RM062X) =  -927.765155122     A.U. after    7 cycles
 SCF Done:  E(RM062X) =  -927.765155168     A.U. after    6 cycles
 SCF Done:  E(RM062X) =  -927.765155179     A.U. after    5 cycles
 SCF Done:  E(RM062X) =  -927.765155188     A.U. after    5 cycles
 SCF Done:  E(RM062X) =  -927.765155198     A.U. after    5 cycles
 SCF Done:  E(RM062X) =  -927.765155217     A.U. after    5 cycles
 SCF Done:  E(RM062X) =  -927.765155248     A.U. after    6 cycles
 SCF Done:  E(RM062X) =  -927.765155300     A.U. after    7 cycles
 SCF Done:  E(RM062X) =  -927.765155359     A.U. after    6 cycles
 SCF Done:  E(RM062X) =  -927.765155447     A.U. after    7 cycles
 SCF Done:  E(RM062X) =  -927.765155506     A.U. after    6 cycles
 SCF Done:  E(RM062X) =  -927.765155527     A.U. after    6 cycles
 Optimization completed.
    -- Stationary point found.
 Normal termination of Gaussian 16 at Wed Nov  1 06:27:29 2023.

 --------------------------------------------------------------------
 #N Geom=AllCheck Guess=TCheck SCRF=Check GenChk RM062X/def2TZVP Freq
 --------------------------------------------------------------------

 Structure from the checkpoint file:  "ph_fluorene_cp_methyl_idp_8_1_m062x.chk"
 ------------
 Structure697
 ------------
 Charge =  0 Multiplicity = 1

                         Standard orientation:
 ---------------------------------------------------------------------
 Center     Atomic      Atomic             Coordinates (Angstroms)
 Number     Number       Type             X           Y           Z
 ---------------------------------------------------------------------
      1          6           0       -6.223990   -0.463634    0.014700
      2          6           0       -2.929851   -2.360089   -0.135991
      3          6           0       -4.286703   -2.066937   -0.119004
      4          6           0       -4.748594   -0.752804   -0.035227
      5          6           0       -3.819145    0.286334    0.030180
      6          1           0       -2.594624   -3.387904   -0.203955
      7          1           0       -5.008276   -2.873664   -0.173883
      8          1           0       -4.168404    1.312862    0.092255
      9          6           0       -2.018806   -1.316514   -0.070839
     10          6           0       -2.466085    0.005339    0.012270
     11          6           0       -0.123399    0.023644   -0.015201
     12          6           0       -0.552924   -1.305962   -0.080086
     13          6           0        0.372050   -2.338003   -0.134380
     14          6           0        1.724648   -2.029515   -0.118963
     15          6           0        2.168627   -0.705643   -0.054462
     16          6           0        1.223804    0.324860   -0.005418
     17          1           0        0.050305   -3.370427   -0.195612
     18          1           0        2.455357   -2.825848   -0.185213
     19          1           0        1.559086    1.354301    0.066488
     20          6           0       -0.942581    3.263685    0.893679
     21          6           0       -1.298976    1.849613    1.352854
     22          6           0       -1.301805    0.974865    0.059526
     23          6           0       -1.315758    2.015851   -1.104318
     24          6           0       -1.649042    3.360524   -0.455609
     25          1           0       -2.304540    1.853585    1.778459
     26          1           0       -0.623318    1.448744    2.107354
     27          1           0       -0.318266    2.066676   -1.545426
     28          1           0       -2.009116    1.726089   -1.892885
     29          1           0        0.137517    3.358297    0.750291
     30          1           0       -1.250816    4.028035    1.606921
     31          1           0       -2.727531    3.451385   -0.297966
     32          1           0       -1.329216    4.209652   -1.059462
     33          6           0        6.356007    0.186513   -0.015684
     34          6           0        5.477467    0.984681   -0.735260
     35          6           0        4.121723    0.694755   -0.747349
     36          6           0        3.617066   -0.398226   -0.041519
     37          6           0        4.511027   -1.192865    0.677379
     38          6           0        5.866926   -0.903699    0.690739
     39          1           0        7.414232    0.412438   -0.005601
     40          1           0        5.850324    1.831706   -1.296771
     41          1           0        3.445852    1.306924   -1.331715
     42          1           0        4.133503   -2.030267    1.250988
     43          1           0        6.542867   -1.527267    1.261708
     44          1           0       -6.449694    0.511136   -0.417349
     45          1           0       -6.792588   -1.218879   -0.527333
     46          1           0       -6.582776   -0.458209    1.046601
 ---------------------------------------------------------------------

 SCF Done:  E(RM062X) =  -927.765155527     A.U. after    1 cycles

 The electronic state is 1-A.
 Alpha  occ. eigenvalues --  -10.55373 -10.55046 -10.54955 -10.54765 -10.54221
 Alpha  occ. eigenvalues --  -10.54096 -10.54074 -10.54060 -10.54041 -10.54016
 Alpha  occ. eigenvalues --  -10.53980 -10.53964 -10.53954 -10.53923 -10.53915
 Alpha  occ. eigenvalues --  -10.53907 -10.53847 -10.53602 -10.53492 -10.53334
 Alpha  occ. eigenvalues --  -10.53298 -10.53126 -10.53122 -10.53073  -1.00162
 Alpha  occ. eigenvalues --   -0.97185  -0.95102  -0.94214  -0.90303  -0.86539
 Alpha  occ. eigenvalues --   -0.85968  -0.84547  -0.83763  -0.81810  -0.80679
 Alpha  occ. eigenvalues --   -0.78868  -0.76855  -0.72119  -0.70265  -0.69092
 Alpha  occ. eigenvalues --   -0.66765  -0.66429  -0.66062  -0.64665  -0.62444
 Alpha  occ. eigenvalues --   -0.59423  -0.58430  -0.56002  -0.55686  -0.54338
 Alpha  occ. eigenvalues --   -0.53755  -0.52139  -0.51622  -0.50865  -0.50474
 Alpha  occ. eigenvalues --   -0.49611  -0.49299  -0.48948  -0.48700  -0.48070
 Alpha  occ. eigenvalues --   -0.47518  -0.46884  -0.45241  -0.44264  -0.43537
 Alpha  occ. eigenvalues --   -0.43273  -0.41927  -0.41692  -0.40367  -0.40258
 Alpha  occ. eigenvalues --   -0.40033  -0.39791  -0.39582  -0.39265  -0.38943
 Alpha  occ. eigenvalues --   -0.37334  -0.36686  -0.34417  -0.30932  -0.30500
 Alpha  occ. eigenvalues --   -0.30119  -0.29668  -0.25300
 Alpha virt. eigenvalues --   -0.01685   0.00975   0.02157   0.02967   0.03463
 Alpha virt. eigenvalues --    0.06076   0.07103   0.07636   0.08574   0.08983
 Alpha virt. eigenvalues --    0.09124   0.10030   0.10399   0.10695   0.11123

 Mulliken charges:
               1
     1  C   -0.485849
     2  C   -0.247682
     3  C   -0.161234
     4  C    0.114125
     5  C   -0.262916
     6  H    0.139076
     7  H    0.137623
     8  H    0.174253
     9  C    0.070863
    10  C    0.042972
    11  C    0.021511
    12  C    0.103255
    13  C   -0.247815
    14  C   -0.195531
    15  C    0.112481
    16  C   -0.298945
    17  H    0.140178
    18  H    0.162251
    19  H    0.211055
    20  C   -0.258298
    21  C   -0.311473
    22  C   -0.021879
    23  C   -0.317023
    24  C   -0.253040
    25  H    0.163868
    26  H    0.164367
    27  H    0.164401
    28  H    0.162517
    29  H    0.136676
    30  H    0.142352
    31  H    0.135326
    32  H    0.142017
    33  C   -0.148710
    34  C   -0.153200
    35  C   -0.216303
    36  C    0.101082
    37  C   -0.221180
    38  C   -0.152798
    39  H    0.141760
    40  H    0.142478
    41  H    0.166015
    42  H    0.167876
    43  H    0.142751
    44  H    0.144672
    45  H    0.145972
    46  H    0.160104
 Sum of Mulliken charges =  -0.00000

 Dipole moment (field-independent basis, Debye):
    X=             -0.6465    Y=              0.7654    Z=              0.1197  Tot=              1.0090
 Quadrupole moment (field-independent basis, Debye-Ang):
   XX=           -128.0309   YY=           -131.6044   ZZ=           -147.1206
   XY=             -0.2988   XZ=              0.4271   YZ=             -2.7661

  Exact polarizability:     423.438      10.985     265.889       3.441      -9.464     166.115
 Approx polarizability:     448.919       9.262     364.759       4.511     -16.817     240.987

 Summary of Natural Population Analysis:

                                       Natural Population
                Natural  -----------------------------------------------
    Atom  No    Charge         Core      Valence    Rydberg      Total
 -----------------------------------------------------------------------
      C    1   -0.61796      1.99945     4.60738    0.01113     6.61796
      C    2   -0.18082      1.99913     4.16451    0.01718     6.18082
      C    3   -0.21026      1.99915     4.19432    0.01678     6.21026
      C    4   -0.01521      1.99918     3.99814    0.01789     6.01521
      C    5   -0.21853      1.99900     4.20229    0.01724     6.21853
      H    6    0.21223      0.00000     0.78652    0.00125     0.78777
      H    7    0.20837      0.00000     0.79049    0.00114     0.79163
      H    8    0.20503      0.00000     0.79242    0.00255     0.79497
      C    9   -0.06652      1.99904     4.04919    0.01829     6.06652
      C   10    0.03953      1.99909     3.94242    0.01895     5.96047
      C   11    0.03413      1.99909     3.94763    0.01915     5.96587
      C   12   -0.05229      1.99905     4.03528    0.01796     6.05229
      C   13   -0.18549      1.99913     4.16940    0.01696     6.18549
      C   14   -0.19537      1.99917     4.17938    0.01682     6.19537
      C   15   -0.04537      1.99912     4.02679    0.01946     6.04537
      C   16   -0.20549      1.99901     4.19003    0.01646     6.20549
      H   17    0.21338      0.00000     0.78542    0.00120     0.78662
      H   18    0.21428      0.00000     0.78460    0.00112     0.78572
      H   19    0.21050      0.00000     0.78638    0.00312     0.78950
      C   20   -0.39944      1.99948     4.38815    0.01181     6.39944
      C   21   -0.37972      1.99941     4.36711    0.01320     6.37972
      C   22   -0.10137      1.99929     4.08253    0.01955     6.10137
      C   23   -0.38033      1.99941     4.36774    0.01319     6.38033
      C   24   -0.39941      1.99948     4.38815    0.01177     6.39941
      H   25    0.20769      0.00000     0.79102    0.00130     0.79231
      H   26    0.22191      0.00000     0.77706    0.00103     0.77809
      H   27    0.20761      0.00000     0.79115    0.00123     0.79239
      H   28    0.22126      0.00000     0.77769    0.00104     0.77874
      H   29    0.19407      0.00000     0.80463    0.00130     0.80593
      H   30    0.21303      0.00000     0.78593    0.00105     0.78697
      H   31    0.19305      0.00000     0.80556    0.00139     0.80695
      H   32    0.21267      0.00000     0.78629    0.00104     0.78733
      C   33   -0.21520      1.99922     4.19756    0.01843     6.21520
      C   34   -0.20444      1.99923     4.18683    0.01839     6.20444
      C   35   -0.19889      1.99914     4.18195    0.01780     6.19889
      C   36   -0.04750      1.99910     4.02824    0.02015     6.04750
      C   37   -0.19803      1.99915     4.18091    0.01798     6.19803
      C   38   -0.20424      1.99923     4.18659    0.01842     6.20424
      H   39    0.21311      0.00000     0.78588    0.00100     0.78689
      H   40    0.21287      0.00000     0.78609    0.00103     0.78713
      H   41    0.21297      0.00000     0.78590    0.00114     0.78703
      H   42    0.21428      0.00000     0.78450    0.00122     0.78572
      H   43    0.21309      0.00000     0.78589    0.00102     0.78691
      H   44    0.21329      0.00000     0.78578    0.00093     0.78671
      H   45    0.21474      0.00000     0.78431    0.00095     0.78526
      H   46    0.21879      0.00000     0.78007    0.00114     0.78121
 =======================================================================
   * Total *    0.00000     47.98075   117.58613    0.43312   166.00000

                      1                      2                      3
                      A                      A                      A
 Frequencies --     29.2931                38.8463                45.9088
 Red. masses --      4.3155                 1.0193                 3.5206
 Frc consts  --      0.0022                 0.0009                 0.0044
 IR Inten    --      0.1004                 0.2605                 0.2150

                      4                      5                      6
                      A                      A                      A
 Frequencies --     51.7107                73.1025                79.4588
 Red. masses --      3.4126                 4.1367                 3.8800
 Frc consts  --      0.0054                 0.0130                 0.0144
 IR Inten    --      0.0213                 0.1002                 0.2090

                      7                      8                      9
                      A                      A                      A
 Frequencies --    101.0039               124.4770               152.7898
 Red. masses --      3.9824                 3.1356                 4.1341
 Frc consts  --      0.0239                 0.0286                 0.0569
 IR Inten    --      0.8119                 0.0125                 0.3237

                     10                     11                     12
                      A                      A                      A
 Frequencies --    167.9987               212.1249               234.2855
 Red. masses --      3.9262                 3.2496                 3.2335
 Frc consts  --      0.0653                 0.0862                 0.1046
 IR Inten    --      0.0717                 0.1173                 0.3450

                     13                     14                     15
                      A                      A                      A
 Frequencies --    240.8163               280.8008               308.4325
 Red. masses --      4.1920                 3.8351                 1.9280
 Frc consts  --      0.1432                 0.1782                 0.1081
 IR Inten    --      0.0854                 0.0387                 0.2023

                     16                     17                     18
                      A                      A                      A
 Frequencies --    330.8491               352.8021               358.2401
 Red. masses --      3.1844                 3.8915                 3.9577
 Frc consts  --      0.2054                 0.2854                 0.2993
 IR Inten    --      0.3817                 0.3485                 0.3408

                     19                     20                     21
                      A                      A                      A
 Frequencies --    389.8226               410.0320               418.8524
 Red. masses --      3.9168                 4.2354                 2.9572
 Frc consts  --      0.3507                 0.4195                 0.3057
 IR Inten    --      0.2040                 1.9913                 0.2799

                     22                     23                     24
                      A                      A                      A
 Frequencies --    448.6381               475.2249               494.8112
 Red. masses --      4.1906                 3.5291                 3.2729
 Frc consts  --      0.4970                 0.4696                 0.4721
 IR Inten    --      5.7108                 8.9491                 0.1705

                     25                     26                     27
                      A                      A                      A
 Frequencies --    523.2584               537.9748               566.9106
 Red. masses --      3.5067                 1.7502                 3.9713
 Frc consts  --      0.5657                 0.2984                 0.7520
 IR Inten    --      3.0216                 1.0948                 2.6836

                     28                     29                     30
                      A                      A                      A
 Frequencies --    591.4141               612.2014               628.4479
 Red. masses --      5.9131                 3.3551                 5.3141
 Frc consts  --      1.2186                 0.7409                 1.2366
 IR Inten    --      0.7373                 0.6551                 0.8264

                     31                     32                     33
                      A                      A                      A
 Frequencies --    636.0188               654.0252               663.2669
 Red. masses --      4.7685                 3.3648                 3.8746
 Frc consts  --      1.1365                 0.8480                 1.0043
 IR Inten    --      0.7038                 0.8318                 1.8718

                     34                     35                     36
                      A                      A                      A
 Frequencies --    692.6052               723.1341               745.1692
 Red. masses --      3.5580                 1.7069                 4.8900
 Frc consts  --      1.0056                 0.5259                 1.5998
 IR Inten    --      2.3927                37.0025                 2.4082

                     37                     38                     39
                      A                      A                      A
 Frequencies --    750.2801               770.6400               789.3678
 Red. masses --      4.4973                 3.8719                 1.9240
 Frc consts  --      1.4916                 1.3548                 0.7063
 IR Inten    --      3.6236                 3.4881                41.9107

                     40                     41                     42
                      A                      A                      A
 Frequencies --    811.1003               844.3342               847.7994
 Red. masses --      2.4144                 1.8490                 1.7416
 Frc consts  --      0.9358                 0.7766                 0.7376
 IR Inten    --     11.3065                15.4956                22.2969

                     43                     44                     45
                      A                      A                      A
 Frequencies --    858.2335               872.0018               876.1323
 Red. masses --      2.3909                 1.7871                 1.2510
 Frc consts  --      1.0376                 0.8006                 0.5658
 IR Inten    --      3.2457                 3.7989                 0.1926

                     46                     47                     48
                      A                      A                      A
 Frequencies --    883.6475               896.0148               917.2046
 Red. masses --      2.3349                 2.1201                 1.4607
 Frc consts  --      1.0742                 1.0029                 0.7240
 IR Inten    --      1.5206                 0.4287                 4.1303

                     49                     50                     51
                      A                      A                      A
 Frequencies --    930.1493               934.0209               954.8509
 Red. masses --      1.4892                 2.4386                 1.5027
 Frc consts  --      0.7591                 1.2534                 0.8072
 IR Inten    --      4.8516                 2.2405                 0.7166

                     52                     53                     54
                      A                      A                      A
 Frequencies --    968.8501               974.3818               977.2525
 Red. masses --      1.4969                 1.7211                 1.6535
 Frc consts  --      0.8279                 0.9628                 0.9304
 IR Inten    --      0.6156                 0.8114                 0.8324

                     55                     56                     57
                      A                      A                      A
 Frequencies --    982.4792               998.5109              1001.3754
 Red. masses --      1.3806                 1.3744                 2.6973
 Frc consts  --      0.7852                 0.8074                 1.5936
 IR Inten    --      0.7203                 0.2011                 0.4745

                     58                     59                     60
                      A                      A                      A
 Frequencies --   1014.4353              1021.4839              1023.0163
 Red. masses --      1.2939                 5.5643                 1.6474
 Frc consts  --      0.7845                 3.4208                 1.0158
 IR Inten    --      0.0525                 1.1758                 1.8988

                     61                     62                     63
                      A                      A                      A
 Frequencies --   1029.5241              1050.8785              1056.1578
 Red. masses --      5.2600                 1.6753                 2.8187
 Frc consts  --      3.2848                 1.0901                 1.8525
 IR Inten    --      1.3690                 0.4820                 2.6842

                     64                     65                     66
                      A                      A                      A
 Frequencies --   1064.8965              1076.3297              1083.6446
 Red. masses --      1.5701                 1.7102                 1.5956
 Frc consts  --      1.0491                 1.1673                 1.1039
 IR Inten    --     13.2316                 1.8761                 0.1162

                     67                     68                     69
                      A                      A                      A
 Frequencies --   1099.8672              1113.5790              1132.2775
 Red. masses --      5.8651                 1.5217                 1.5691
 Frc consts  --      4.1803                 1.1118                 1.1852
 IR Inten    --      0.3130                 4.5251                 0.4177

                     70                     71                     72
                      A                      A                      A
 Frequencies --   1152.3282              1162.0193              1171.5754
 Red. masses --      1.6195                 1.4199                 1.5085
 Frc consts  --      1.2671                 1.1297                 1.2199
 IR Inten    --      5.3899                 4.3606                 0.1145

                     73                     74                     75
                      A                      A                      A
 Frequencies --   1177.2939              1207.9994              1212.1835
 Red. masses --      1.1470                 1.1272                 1.9598
 Frc consts  --      0.9367                 0.9692                 1.6966
 IR Inten    --      0.0330                 1.4502                 0.2798

                     76                     77                     78
                      A                      A                      A
 Frequencies --   1236.3032              1242.5549              1259.8490
 Red. masses --      2.2334                 2.0462                 1.5659
 Frc consts  --      2.0113                 1.8614                 1.4644
 IR Inten    --      0.4950                 1.4994                 3.2104

                     79                     80                     81
                      A                      A                      A
 Frequencies --   1264.7351              1269.4787              1295.8155
 Red. masses --      1.4691                 1.6801                 3.4278
 Frc consts  --      1.3845                 1.5953                 3.3912
 IR Inten    --      5.5360                11.6403                 2.6448

                     82                     83                     84
                      A                      A                      A
 Frequencies --   1308.2769              1314.3505              1319.4771
 Red. masses --      1.8485                 3.3289                 2.4769
 Frc consts  --      1.8641                 3.3883                 2.5408
 IR Inten    --      6.1156                 0.4378                 2.8898

                     85                     86                     87
                      A                      A                      A
 Frequencies --   1320.4191              1335.2121              1343.3173
 Red. masses --      1.6275                 2.2064                 1.3557
 Frc consts  --      1.6719                 2.3176                 1.4413
 IR Inten    --      5.0836                 0.9742                 0.1276

                     88                     89                     90
                      A                      A                      A
 Frequencies --   1348.9873              1351.4237              1354.1043
 Red. masses --      1.5368                 1.5605                 1.5875
 Frc consts  --      1.6477                 1.6792                 1.7150
 IR Inten    --      2.8618                 0.6630                 2.7340

                     91                     92                     93
                      A                      A                      A
 Frequencies --   1373.4490              1413.2717              1458.0797
 Red. masses --      3.4329                 1.2814                 3.1513
 Frc consts  --      3.8154                 1.5080                 3.9474
 IR Inten    --      2.5157                 0.2861                13.3583

                     94                     95                     96
                      A                      A                      A
 Frequencies --   1466.8463              1486.6412              1491.6369
 Red. masses --      2.3467                 1.0951                 1.0571
 Frc consts  --      2.9749                 1.4260                 1.3858
 IR Inten    --      9.1616                 0.1079                 9.6693

                     97                     98                     99
                      A                      A                      A
 Frequencies --   1491.8945              1493.4788              1494.0222
 Red. masses --      1.1122                 1.3448                 1.3913
 Frc consts  --      1.4585                 1.7672                 1.8297
 IR Inten    --      4.9823                 3.4548                 3.5249

                    100                    101                    102
                      A                      A                      A
 Frequencies --   1504.5573              1513.1276              1515.0914
 Red. masses --      1.7497                 1.1471                 2.4036
 Frc consts  --      2.3336                 1.5473                 3.2507
 IR Inten    --     20.5578                 8.6366                77.2119

                    103                    104                    105
                      A                      A                      A
 Frequencies --   1538.0509              1554.5941              1638.7770
 Red. masses --      3.0363                 3.2765                 6.2238
 Frc consts  --      4.2319                 4.6654                 9.8479
 IR Inten    --      0.5525                 4.0621                 2.3481

                    106                    107                    108
                      A                      A                      A
 Frequencies --   1652.7621              1656.9409              1676.7701
 Red. masses --      6.8179                 6.9601                 6.0316
 Frc consts  --     10.9729                11.2585                 9.9914
 IR Inten    --      0.6535                 0.7941                16.4483

                    109                    110                    111
                      A                      A                      A
 Frequencies --   1683.8581              1687.3165              3059.8893
 Red. masses --      7.1466                 7.0720                 1.0700
 Frc consts  --     11.9388                11.8628                 5.9026
 IR Inten    --      2.7744                 4.5434                13.2772

                    112                    113                    114
                      A                      A                      A
 Frequencies --   3062.1612              3066.1795              3077.6173
 Red. masses --      1.0381                 1.0640                 1.0623
 Frc consts  --      5.7350                 5.8934                 5.9282
 IR Inten    --     30.9626                26.4080                26.1395

                    115                    116                    117
                      A                      A                      A
 Frequencies --   3078.4106              3123.7978              3123.9559
 Red. masses --      1.0640                 1.0954                 1.0979
 Frc consts  --      5.9407                 6.2977                 6.3128
 IR Inten    --      2.9820                29.8447                12.7787

                    118                    119                    120
                      A                      A                      A
 Frequencies --   3125.9876              3135.8655              3137.7383
 Red. masses --      1.0997                 1.1029                 1.1045
 Frc consts  --      6.3315                 6.3901                 6.4070
 IR Inten    --     28.4094                 5.8095                28.3125

                    121                    122                    123
                      A                      A                      A
 Frequencies --   3147.7334              3173.1952              3185.6245
 Red. masses --      1.1029                 1.0900                 1.0899
 Frc consts  --      6.4383                 6.4668                 6.5166
 IR Inten    --      9.5555                13.1961                 7.6688

                    124                    125                    126
                      A                      A                      A
 Frequencies --   3192.9209              3198.0586              3199.3951
 Red. masses --      1.0873                 1.0860                 1.0870
 Frc consts  --      6.5312                 6.5439                 6.5558
 IR Inten    --     10.5647                 9.2710                 1.3695

                    127                    128                    129
                      A                      A                      A
 Frequencies --   3202.9045              3210.1121              3211.4299
 Red. masses --      1.0878                 1.0949                 1.0913
 Frc consts  --      6.5748                 6.6474                 6.6314
 IR Inten    --      0.3229                13.3071                 3.9617

                    130                    131                    132
                      A                      A                      A
 Frequencies --   3216.3151              3218.5849              3228.6133
 Red. masses --      1.0944                 1.0946                 1.0985
 Frc consts  --      6.6704                 6.6809                 6.7468
 IR Inten    --      3.9013                18.7646                13.4641

 - Thermochemistry -
 -------------------
 Temperature   298.150 Kelvin.  Pressure   1.00000 Atm.
 Atom     1 has atomic number  6 and mass  12.00000

 Molecular mass:   310.17215 amu.
 Principal axes and moments of inertia in atomic units:
                           1         2         3
     Eigenvalues --  3323.07023********************
           X            1.00000  -0.00288   0.00012
           Y            0.00288   0.99999  -0.00358
           Z           -0.00011   0.00358   0.99999
 This molecule is an asymmetric top.
 Rotational symmetry number  1.
 Warning -- assumption of classical behavior for rotation
           may cause significant error
 Rotational temperatures (Kelvin)      0.02606     0.00620     0.00523
 Rotational constants (GHZ):           0.54309     0.12917     0.10887
 Zero-point vibrational energy    1027680.9 (Joules/Mol)
                                  245.62163 (Kcal/Mol)
 Warning -- explicit consideration of  29 degrees of freedom as
           vibrations may cause significant error
 Vibrational temperatures:     42.15    55.89    66.05    74.40   105.18
          (Kelvin)            114.32   145.32   179.09   219.83   241.71
                              305.20   337.08   346.48   404.01   443.77
                              476.02   507.60   515.43   560.87   589.94
                              602.64   645.49   683.74   711.92   752.85
                              774.03   815.66   850.91   880.82   904.20
                              915.09   941.00   954.29   996.50  1040.43
                             1072.13  1079.49  1108.78  1135.72  1166.99
                             1214.81  1219.79  1234.81  1254.62  1260.56
                             1271.37  1289.17  1319.65  1338.28  1343.85
                             1373.82  1393.96  1401.92  1406.05  1413.57
                             1436.63  1440.76  1459.55  1469.69  1471.89
                             1481.26  1511.98  1519.58  1532.15  1548.60
                             1559.12  1582.46  1602.19  1629.09  1657.94
                             1671.89  1685.64  1693.86  1738.04  1744.06
                             1778.76  1787.76  1812.64  1819.67  1826.50
                             1864.39  1882.32  1891.06  1898.43  1899.79
                             1921.07  1932.73  1940.89  1944.40  1948.25
                             1976.09  2033.38  2097.85  2110.46  2138.95
                             2146.13  2146.50  2148.78  2149.56  2164.72
                             2177.05  2179.88  2212.91  2236.71  2357.83
                             2377.96  2383.97  2412.50  2422.70  2427.67
                             4402.50  4405.77  4411.55  4428.00  4429.15
                             4494.45  4494.68  4497.60  4511.81  4514.51
                             4528.89  4565.52  4583.40  4593.90  4601.29
                             4603.22  4608.27  4618.64  4620.53  4627.56
                             4630.83  4645.25

 Zero-point correction=                           0.391423 (Hartree/Particle)
 Thermal correction to Energy=                    0.410716
 Thermal correction to Enthalpy=                  0.411660
 Thermal correction to Gibbs Free Energy=         0.342537
 Sum of electronic and zero-point Energies=           -927.373733
 Sum of electronic and thermal Energies=              -927.354440
 Sum of electronic and thermal Enthalpies=            -927.353496
 Sum of electronic and thermal Free Energies=         -927.422619

                     E (Thermal)             CV                S
                      KCal/Mol        Cal/Mol-Kelvin    Cal/Mol-Kelvin
 Total                  257.728             78.317            145.483
 Electronic               0.000              0.000              0.000
 Translational            0.889              2.981             43.092
 Rotational               0.889              2.981             34.997
 Vibrational            255.951             72.355             67.393
 Vibration     1          0.593              1.984              5.877
 Vibration     2          0.594              1.981              5.317
 Vibration     3          0.595              1.979              4.986
 Vibration     4          0.596              1.977              4.751
 Vibration     5          0.599              1.967              4.068
 Vibration     6          0.600              1.963              3.904
 Vibration     7          0.604              1.948              3.435
 Vibration     8          0.610              1.929              3.030
 Vibration     9          0.619              1.900              2.637
 Vibration    10          0.625              1.882              2.458
 Vibration    11          0.643              1.822              2.025
 Vibration    12          0.654              1.788              1.846
 Vibration    13          0.658              1.778              1.797
 Vibration    14          0.680              1.709              1.529
 Vibration    15          0.698              1.658              1.371
 Vibration    16          0.713              1.614              1.256
 Vibration    17          0.729              1.570              1.154
 Vibration    18          0.733              1.558              1.130
 Vibration    19          0.758              1.492              1.001
 Vibration    20          0.774              1.448              0.927
 Vibration    21          0.782              1.429              0.896
 Vibration    22          0.808              1.364              0.800
 Vibration    23          0.832              1.305              0.723
 Vibration    24          0.850              1.262              0.671
 Vibration    25          0.878              1.199              0.602
 Vibration    26          0.893              1.166              0.570
 Vibration    27          0.923              1.103              0.510
 Vibration    28          0.949              1.050              0.465
 Vibration    29          0.971              1.006              0.429

 Optimization completed.
    -- Stationary point found.
 Normal termination of Gaussian 16 at Wed Nov  1 12:53:12 2023.
