 Gaussian 16, Revision C.01,
 Gaussian 16:  ES64L-G16RevC.01  3-Jul-2019

 -----------------------------------------
 # opt freq=noraman m062x def2tzvp pop=nbo
 -----------------------------------------

 ------------
 Structure697
 ------------
 Symbolic Z-matrix:
 Charge =  0 Multiplicity = 1

 SCF Done:  E(RM062X) =  -811.043808609     A.U. after   13 cycles
 SCF Done:  E(RM062X) =  -811.045945932     A.U. after   12 cycles
 SCF Done:  E(RM062X) =  -811.046027940     A.U. after   11 cycles
 SCF Done:  E(RM062X) =  -811.046032946     A.U. after    9 cycles
 SCF Done:  E(RM062X) =  -811.046033300     A.U. after    7 cycles
 Optimization completed.
    -- Stationary point found.
 Normal termination of Gaussian 16 at Tue Nov 14 17:06:32 2023.

 --------------------------------------------------------------------
 #N Geom=AllCheck Guess=TCheck SCRF=Check GenChk RM062X/def2TZVP Freq
 --------------------------------------------------------------------

 Structure from the checkpoint file:  "ph_fluorene_methyl_1_1_m062x.chk"
 ------------
 Structure697
 ------------
 Charge =  0 Multiplicity = 1

                         Standard orientation:
 ---------------------------------------------------------------------
 Center     Atomic      Atomic             Coordinates (Angstroms)
 Number     Number       Type             X           Y           Z
 ---------------------------------------------------------------------
      1          6           0        3.497273   -1.869642   -0.204244
      2          6           0        4.841874   -1.523659   -0.162131
      3          6           0        5.227835   -0.195533   -0.010773
      4          6           0        4.272949    0.811082    0.101399
      5          1           0        3.200238   -2.904506   -0.322164
      6          1           0        5.597922   -2.293364   -0.247769
      7          1           0        4.580917    1.843850    0.219496
      8          6           0        2.546651   -0.864725   -0.092853
      9          6           0        2.933575    0.470955    0.059775
     10          6           0        0.588552    0.379913    0.039107
     11          6           0        1.081333   -0.920739   -0.103359
     12          6           0        0.206669   -1.990872   -0.222359
     13          6           0       -1.158395   -1.747045   -0.196092
     14          6           0       -1.665100   -0.451406   -0.055084
     15          6           0       -0.770938    0.617751    0.062395
     16          1           0        0.576880   -3.001647   -0.342142
     17          1           0       -1.850905   -2.571199   -0.312772
     18          1           0       -1.154278    1.623503    0.196963
     19          6           0        1.692833    2.400198   -0.982554
     20          6           0        1.722981    1.381350    0.161975
     21          6           0        1.683510    2.103943    1.513200
     22          1           0        1.703800    1.388369    2.335455
     23          1           0        2.542413    2.770314    1.612095
     24          6           0       -5.890593    0.233433    0.010369
     25          6           0       -5.351907   -0.873648    0.651472
     26          6           0       -3.983575   -1.095524    0.629698
     27          6           0       -3.126745   -0.215248   -0.032443
     28          6           0       -3.680900    0.894087   -0.672555
     29          6           0       -5.049216    1.116571   -0.652115
     30          1           0       -6.958615    0.406594    0.026790
     31          1           0       -5.999095   -1.563468    1.177776
     32          1           0       -3.568125   -1.947744    1.153034
     33          1           0       -3.033219    1.573495   -1.212829
     34          1           0       -5.460689    1.977922   -1.162500
     35          1           0        6.280166    0.055527    0.020025
     36          1           0        1.719363    1.897270   -1.949500
     37          1           0        2.551576    3.070858   -0.916815
     38          1           0        0.784591    3.003535   -0.929607
     39          1           0        0.775060    2.703236    1.597502
 ---------------------------------------------------------------------

 SCF Done:  E(RM062X) =  -811.046033300     A.U. after    1 cycles

 The electronic state is 1-A.
 Alpha  occ. eigenvalues --  -10.55831 -10.55237 -10.55177 -10.54552 -10.54505
 Alpha  occ. eigenvalues --  -10.54336 -10.54311 -10.54246 -10.54221 -10.54219
 Alpha  occ. eigenvalues --  -10.54200 -10.54192 -10.54160 -10.54115 -10.54114
 Alpha  occ. eigenvalues --  -10.54095 -10.54091 -10.54042 -10.54007 -10.53050
 Alpha  occ. eigenvalues --  -10.53004  -1.00335  -0.97307  -0.95042  -0.92060
 Alpha  occ. eigenvalues --   -0.88661  -0.85097  -0.84729  -0.84019  -0.83025
 Alpha  occ. eigenvalues --   -0.80033  -0.78323  -0.73634  -0.71755  -0.69423
 Alpha  occ. eigenvalues --   -0.67978  -0.66330  -0.65568  -0.63567  -0.59906
 Alpha  occ. eigenvalues --   -0.58704  -0.55804  -0.55200  -0.53227  -0.52105
 Alpha  occ. eigenvalues --   -0.51849  -0.51258  -0.50682  -0.50576  -0.49952
 Alpha  occ. eigenvalues --   -0.48865  -0.48626  -0.48459  -0.46173  -0.45173
 Alpha  occ. eigenvalues --   -0.44986  -0.44707  -0.44180  -0.42388  -0.42334
 Alpha  occ. eigenvalues --   -0.40774  -0.40508  -0.40011  -0.39497  -0.37772
 Alpha  occ. eigenvalues --   -0.37601  -0.35169  -0.31061  -0.31005  -0.30586
 Alpha  occ. eigenvalues --   -0.30204  -0.25903
 Alpha virt. eigenvalues --   -0.01995   0.01021   0.02042   0.02758   0.03341
 Alpha virt. eigenvalues --    0.06068   0.07508   0.08178   0.08611   0.09258
 Alpha virt. eigenvalues --    0.09774   0.10787   0.11150   0.11484   0.12176

 Mulliken charges:
               1
     1  C   -0.252506
     2  C   -0.138903
     3  C   -0.154918
     4  C   -0.179323
     5  H    0.140452
     6  H    0.141332
     7  H    0.151381
     8  C    0.143224
     9  C   -0.041707
    10  C   -0.062557
    11  C    0.170618
    12  C   -0.253450
    13  C   -0.189829
    14  C    0.101997
    15  C   -0.234522
    16  H    0.141638
    17  H    0.163589
    18  H    0.190564
    19  C   -0.410186
    20  C   -0.054554
    21  C   -0.409056
    22  H    0.163713
    23  H    0.147931
    24  C   -0.147885
    25  C   -0.153218
    26  C   -0.220032
    27  C    0.101634
    28  C   -0.214341
    29  C   -0.153310
    30  H    0.142241
    31  H    0.143140
    32  H    0.167663
    33  H    0.166868
    34  H    0.143018
    35  H    0.141128
    36  H    0.163855
    37  H    0.148361
    38  H    0.147011
    39  H    0.148939
 Sum of Mulliken charges =  -0.00000

 Dipole moment (field-independent basis, Debye):
    X=              0.0677    Y=              0.4617    Z=              0.0713  Tot=              0.4721
 Quadrupole moment (field-independent basis, Debye-Ang):
   XX=           -112.1821   YY=           -112.8522   ZZ=           -129.6775
   XY=              0.4920   XZ=             -0.5228   YZ=             -1.8608

  Exact polarizability:     378.763      -7.480     227.692      -3.057      -6.229     141.861
 Approx polarizability:     406.526      -5.890     326.512      -4.201     -10.574     202.746

 Summary of Natural Population Analysis:

                                       Natural Population
                Natural  -----------------------------------------------
    Atom  No    Charge         Core      Valence    Rydberg      Total
 -----------------------------------------------------------------------
      C    1   -0.19159      1.99913     4.17492    0.01754     6.19159
      C    2   -0.20924      1.99925     4.19215    0.01783     6.20924
      C    3   -0.20501      1.99925     4.18742    0.01833     6.20501
      C    4   -0.21179      1.99909     4.19528    0.01741     6.21179
      H    5    0.21275      0.00000     0.78598    0.00127     0.78725
      H    6    0.21302      0.00000     0.78598    0.00099     0.78698
      H    7    0.21235      0.00000     0.78635    0.00130     0.78765
      C    8   -0.05599      1.99905     4.03819    0.01874     6.05599
      C    9    0.02530      1.99909     3.95420    0.02141     5.97470
      C   10    0.03145      1.99909     3.94910    0.02037     5.96855
      C   11   -0.05638      1.99905     4.03854    0.01880     6.05638
      C   12   -0.18440      1.99913     4.16821    0.01705     6.18440
      C   13   -0.19409      1.99917     4.17809    0.01684     6.19409
      C   14   -0.04263      1.99912     4.02410    0.01940     6.04263
      C   15   -0.20012      1.99901     4.18529    0.01582     6.20012
      H   16    0.21393      0.00000     0.78487    0.00120     0.78607
      H   17    0.21481      0.00000     0.78407    0.00111     0.78519
      H   18    0.21209      0.00000     0.78571    0.00220     0.78791
      C   19   -0.57723      1.99942     4.56633    0.01148     6.57723
      C   20   -0.10223      1.99931     4.08689    0.01603     6.10223
      C   21   -0.57717      1.99942     4.56627    0.01148     6.57717
      H   22    0.21743      0.00000     0.78177    0.00080     0.78257
      H   23    0.20611      0.00000     0.79290    0.00099     0.79389
      C   24   -0.21435      1.99922     4.19673    0.01841     6.21435
      C   25   -0.20411      1.99923     4.18646    0.01841     6.20411
      C   26   -0.19769      1.99915     4.18058    0.01797     6.19769
      C   27   -0.04877      1.99910     4.02952    0.02015     6.04877
      C   28   -0.19839      1.99914     4.18146    0.01779     6.19839
      C   29   -0.20423      1.99923     4.18662    0.01837     6.20423
      H   30    0.21337      0.00000     0.78562    0.00100     0.78663
      H   31    0.21336      0.00000     0.78562    0.00102     0.78664
      H   32    0.21424      0.00000     0.78454    0.00122     0.78576
      H   33    0.21343      0.00000     0.78544    0.00112     0.78657
      H   34    0.21321      0.00000     0.78576    0.00103     0.78679
      H   35    0.21256      0.00000     0.78643    0.00101     0.78744
      H   36    0.21718      0.00000     0.78202    0.00080     0.78282
      H   37    0.20632      0.00000     0.79268    0.00099     0.79368
      H   38    0.20577      0.00000     0.79330    0.00093     0.79423
      H   39    0.20670      0.00000     0.79238    0.00092     0.79330
 =======================================================================
   * Total *   -0.00000     41.98264   101.62782    0.38954   144.00000

                      1                      2                      3
                      A                      A                      A
 Frequencies --     37.2154                49.6536                75.8371
 Red. masses --      4.8112                 3.7002                 4.6260
 Frc consts  --      0.0039                 0.0054                 0.0157
 IR Inten    --      0.1208                 0.1121                 0.1453

                      4                      5                      6
                      A                      A                      A
 Frequencies --     90.7847               125.4223               130.1250
 Red. masses --      3.5274                 4.5744                 3.2716
 Frc consts  --      0.0171                 0.0424                 0.0326
 IR Inten    --      0.3658                 0.4351                 0.0132

                      7                      8                      9
                      A                      A                      A
 Frequencies --    179.5974               192.4882               215.6431
 Red. masses --      3.9516                 3.6006                 3.4457
 Frc consts  --      0.0751                 0.0786                 0.0944
 IR Inten    --      0.4917                 0.1755                 0.0888

                     10                     11                     12
                      A                      A                      A
 Frequencies --    255.2147               265.3172               285.1191
 Red. masses --      1.0512                 2.7892                 3.9259
 Frc consts  --      0.0403                 0.1157                 0.1880
 IR Inten    --      0.0091                 0.0080                 0.3830

                     13                     14                     15
                      A                      A                      A
 Frequencies --    297.7847               322.7348               351.4808
 Red. masses --      1.1817                 2.7170                 3.8021
 Frc consts  --      0.0617                 0.1667                 0.2767
 IR Inten    --      0.1172                 0.2632                 0.0945

                     16                     17                     18
                      A                      A                      A
 Frequencies --    355.7131               398.8997               417.9092
 Red. masses --      3.6824                 4.0232                 2.9429
 Frc consts  --      0.2745                 0.3772                 0.3028
 IR Inten    --      0.8700                 1.3844                 0.2116

                     19                     20                     21
                      A                      A                      A
 Frequencies --    460.1095               478.6115               494.6858
 Red. masses --      4.1278                 4.8907                 3.1586
 Frc consts  --      0.5149                 0.6601                 0.4554
 IR Inten    --      7.4450                 3.5476                 1.8815

                     22                     23                     24
                      A                      A                      A
 Frequencies --    517.1432               547.8515               579.1832
 Red. masses --      3.8517                 4.0515                 3.8783
 Frc consts  --      0.6069                 0.7165                 0.7665
 IR Inten    --      2.1587                 1.1163                 3.4039

                     25                     26                     27
                      A                      A                      A
 Frequencies --    587.0394               605.1598               630.6096
 Red. masses --      3.4588                 3.9951                 6.4506
 Frc consts  --      0.7023                 0.8620                 1.5114
 IR Inten    --      4.8823                 0.2556                 0.0372

                     28                     29                     30
                      A                      A                      A
 Frequencies --    634.9566               663.0923               711.4099
 Red. masses --      6.5178                 3.6435                 5.7512
 Frc consts  --      1.5483                 0.9439                 1.7149
 IR Inten    --      0.0602                 1.8819                 7.7760

                     31                     32                     33
                      A                      A                      A
 Frequencies --    722.6298               737.6811               767.6408
 Red. masses --      1.7169                 5.0325                 1.8117
 Frc consts  --      0.5282                 1.6135                 0.6290
 IR Inten    --     37.4130                 2.6315                45.4022

                     34                     35                     36
                      A                      A                      A
 Frequencies --    787.8645               789.0560               798.1162
 Red. masses --      2.2098                 1.8979                 4.1409
 Frc consts  --      0.8082                 0.6962                 1.5541
 IR Inten    --      1.9569                62.8782                 1.6072

                     37                     38                     39
                      A                      A                      A
 Frequencies --    819.2050               862.2508               868.8579
 Red. masses --      2.7196                 3.3366                 1.5560
 Frc consts  --      1.0753                 1.4616                 0.6921
 IR Inten    --      1.8971                 3.0284                12.3032

                     40                     41                     42
                      A                      A                      A
 Frequencies --    875.1453               904.9787               933.5010
 Red. masses --      1.2499                 1.5230                 1.4441
 Frc consts  --      0.5640                 0.7349                 0.7414
 IR Inten    --      0.0961                 0.0803                 6.0270

                     43                     44                     45
                      A                      A                      A
 Frequencies --    956.2783               961.5614               962.3622
 Red. masses --      1.5139                 2.1325                 1.5182
 Frc consts  --      0.8157                 1.1617                 0.8284
 IR Inten    --      1.2914                 2.5422                 0.7744

                     46                     47                     48
                      A                      A                      A
 Frequencies --    967.5878               983.3295               997.9752
 Red. masses --      1.3829                 1.3693                 1.3752
 Frc consts  --      0.7628                 0.7801                 0.8070
 IR Inten    --      0.6285                 0.2707                 0.2581

                     49                     50                     51
                      A                      A                      A
 Frequencies --   1002.2957              1014.6163              1021.2866
 Red. masses --      1.2903                 1.2936                 5.8228
 Frc consts  --      0.7637                 0.7846                 3.5783
 IR Inten    --      0.0109                 0.0471                 0.8622

                     52                     53                     54
                      A                      A                      A
 Frequencies --   1029.1049              1034.7469              1053.2863
 Red. masses --      6.6797                 1.3317                 3.2992
 Frc consts  --      4.1680                 0.8401                 2.1565
 IR Inten    --      1.4553                 0.0022                 0.9580

                     55                     56                     57
                      A                      A                      A
 Frequencies --   1056.9329              1075.4268              1105.7393
 Red. masses --      2.1424                 1.7584                 2.3750
 Frc consts  --      1.4101                 1.1982                 1.7109
 IR Inten    --      8.3126                 2.5963                 5.0704

                     58                     59                     60
                      A                      A                      A
 Frequencies --   1113.6365              1118.5280              1150.5733
 Red. masses --      1.5240                 1.8685                 1.5118
 Frc consts  --      1.1136                 1.3773                 1.1792
 IR Inten    --      3.5696                 2.3622                 0.1466

                     61                     62                     63
                      A                      A                      A
 Frequencies --   1166.3047              1177.1772              1178.6384
 Red. masses --      1.3841                 1.1473                 1.1833
 Frc consts  --      1.1093                 0.9367                 0.9685
 IR Inten    --      1.3369                 0.0308                 3.6923

                     64                     65                     66
                      A                      A                      A
 Frequencies --   1190.8839              1208.0396              1239.6005
 Red. masses --      4.2338                 1.1262                 2.4728
 Frc consts  --      3.5377                 0.9683                 2.2388
 IR Inten    --      0.8197                 1.2985                 0.3318

                     67                     68                     69
                      A                      A                      A
 Frequencies --   1248.5886              1267.2358              1297.7501
 Red. masses --      2.4174                 2.2033                 3.4849
 Frc consts  --      2.2204                 2.0847                 3.4580
 IR Inten    --      3.1362                14.9151                 1.4613

                     70                     71                     72
                      A                      A                      A
 Frequencies --   1314.5354              1319.4926              1325.3016
 Red. masses --      2.9715                 2.5790                 2.2855
 Frc consts  --      3.0253                 2.6455                 2.3651
 IR Inten    --      5.6072                 1.3034                 8.4613

                     73                     74                     75
                      A                      A                      A
 Frequencies --   1340.6926              1353.8410              1373.7506
 Red. masses --      3.1249                 1.6029                 3.2561
 Frc consts  --      3.3093                 1.7310                 3.6205
 IR Inten    --      1.7802                 1.5982                 1.7673

                     76                     77                     78
                      A                      A                      A
 Frequencies --   1393.8121              1416.6765              1460.0829
 Red. masses --      1.2267                 1.2321                 3.1531
 Frc consts  --      1.4040                 1.4569                 3.9605
 IR Inten    --      7.7714                 2.4945                14.5712

                     79                     80                     81
                      A                      A                      A
 Frequencies --   1482.0137              1486.8924              1492.1654
 Red. masses --      1.0448                 1.0476                 2.3442
 Frc consts  --      1.3520                 1.3646                 3.0752
 IR Inten    --      0.0393                 3.4649                 2.2512

                     82                     83                     84
                      A                      A                      A
 Frequencies --   1496.4139              1502.8293              1505.7387
 Red. masses --      1.7882                 1.1740                 1.4242
 Frc consts  --      2.3592                 1.5623                 1.9025
 IR Inten    --     37.5074                 7.5351                14.9227

                     85                     86                     87
                      A                      A                      A
 Frequencies --   1519.7867              1531.6606              1553.8071
 Red. masses --      2.1607                 2.7993                 3.1465
 Frc consts  --      2.9404                 3.8693                 4.4758
 IR Inten    --     11.5302                17.7932                 1.6908

                     88                     89                     90
                      A                      A                      A
 Frequencies --   1638.9719              1654.8009              1657.6593
 Red. masses --      6.2053                 6.4487                 7.0821
 Frc consts  --      9.8210                10.4043                11.4657
 IR Inten    --      1.8417                 1.3374                 0.1598

                     91                     92                     93
                      A                      A                      A
 Frequencies --   1676.0633              1681.8180              1685.0224
 Red. masses --      6.0085                 7.0015                 7.0505
 Frc consts  --      9.9449                11.6680                11.7946
 IR Inten    --     12.1978                 2.6917                 4.1139

                     94                     95                     96
                      A                      A                      A
 Frequencies --   3056.2800              3058.9138              3127.8073
 Red. masses --      1.0339                 1.0344                 1.1030
 Frc consts  --      5.6900                 5.7026                 6.3578
 IR Inten    --     14.8372                28.8082                 0.3234

                     97                     98                     99
                      A                      A                      A
 Frequencies --   3131.8662              3142.3132              3143.8635
 Red. masses --      1.1022                 1.1031                 1.1030
 Frc consts  --      6.3697                 6.4172                 6.4233
 IR Inten    --     34.0979                 8.7343                19.3590

                    100                    101                    102
                      A                      A                      A
 Frequencies --   3190.1048              3190.5980              3199.0805
 Red. masses --      1.0884                 1.0897                 1.0861
 Frc consts  --      6.5261                 6.5359                 6.5492
 IR Inten    --      4.6080                 8.8638                 8.7611

                    103                    104                    105
                      A                      A                      A
 Frequencies --   3199.3738              3201.5364              3204.3530
 Red. masses --      1.0872                 1.0875                 1.0877
 Frc consts  --      6.5566                 6.5673                 6.5802
 IR Inten    --      0.0752                 2.9664                 0.6866

                    106                    107                    108
                      A                      A                      A
 Frequencies --   3211.7539              3212.5509              3218.0575
 Red. masses --      1.0927                 1.0914                 1.0947
 Frc consts  --      6.6407                 6.6362                 6.6795
 IR Inten    --      9.4471                 5.1987                 2.5484

                    109                    110                    111
                      A                      A                      A
 Frequencies --   3219.6178              3224.5632              3229.0468
 Red. masses --      1.0945                 1.0972                 1.0985
 Frc consts  --      6.6845                 6.7217                 6.7487
 IR Inten    --     19.0168                16.9096                12.5137

 - Thermochemistry -
 -------------------
 Temperature   298.150 Kelvin.  Pressure   1.00000 Atm.
 Atom     1 has atomic number  6 and mass  12.00000

 Molecular mass:   270.14085 amu.
 Principal axes and moments of inertia in atomic units:
                           1         2         3
     Eigenvalues --  1997.39352********************
           X            0.99999   0.00401   0.00013
           Y           -0.00401   0.99998  -0.00374
           Z           -0.00014   0.00374   0.99999
 This molecule is an asymmetric top.
 Rotational symmetry number  1.
 Warning -- assumption of classical behavior for rotation
           may cause significant error
 Rotational temperatures (Kelvin)      0.04336     0.00753     0.00671
 Rotational constants (GHZ):           0.90355     0.15687     0.13991
 Zero-point vibrational energy     857894.2 (Joules/Mol)
                                  205.04164 (Kcal/Mol)
 Warning -- explicit consideration of  26 degrees of freedom as
           vibrations may cause significant error
 Vibrational temperatures:     53.54    71.44   109.11   130.62   180.45
          (Kelvin)            187.22   258.40   276.95   310.26   367.20
                              381.73   410.22   428.45   464.34   505.70
                              511.79   573.93   601.28   661.99   688.62
                              711.74   744.05   788.24   833.32   844.62
                              870.69   907.31   913.56   954.04  1023.56
                             1039.70  1061.36  1104.46  1133.56  1135.28
                             1148.31  1178.65  1240.59  1250.09  1259.14
                             1302.06  1343.10  1375.87  1383.47  1384.62
                             1392.14  1414.79  1435.86  1442.08  1459.81
                             1469.40  1480.65  1488.77  1515.44  1520.69
                             1547.30  1590.91  1602.27  1609.31  1655.42
                             1678.05  1693.70  1695.80  1713.42  1738.10
                             1783.51  1796.44  1823.27  1867.17  1891.32
                             1898.46  1906.81  1928.96  1947.88  1976.52
                             2005.38  2038.28  2100.73  2132.29  2139.31
                             2146.89  2153.01  2162.24  2166.42  2186.63
                             2203.72  2235.58  2358.12  2380.89  2385.00
                             2411.48  2419.76  2424.37  4397.31  4401.09
                             4500.22  4506.06  4521.09  4523.32  4589.85
                             4590.56  4602.76  4603.19  4606.30  4610.35
                             4621.00  4622.14  4630.07  4632.31  4639.43
                             4645.88

 Zero-point correction=                           0.326755 (Hartree/Particle)
 Thermal correction to Energy=                    0.343311
 Thermal correction to Enthalpy=                  0.344255
 Thermal correction to Gibbs Free Energy=         0.282727
 Sum of electronic and zero-point Energies=           -810.719279
 Sum of electronic and thermal Energies=              -810.702722
 Sum of electronic and thermal Enthalpies=            -810.701778
 Sum of electronic and thermal Free Energies=         -810.763306

                     E (Thermal)             CV                S
                      KCal/Mol        Cal/Mol-Kelvin    Cal/Mol-Kelvin
 Total                  215.431             68.221            129.496
 Electronic               0.000              0.000              0.000
 Translational            0.889              2.981             42.680
 Rotational               0.889              2.981             34.049
 Vibrational            213.653             62.259             52.767
 Vibration     1          0.594              1.982              5.402
 Vibration     2          0.595              1.978              4.831
 Vibration     3          0.599              1.965              3.996
 Vibration     4          0.602              1.956              3.643
 Vibration     5          0.610              1.928              3.015
 Vibration     6          0.612              1.923              2.944
 Vibration     7          0.629              1.867              2.333
 Vibration     8          0.634              1.850              2.204
 Vibration     9          0.645              1.817              1.995
 Vibration    10          0.666              1.754              1.694
 Vibration    11          0.671              1.737              1.627
 Vibration    12          0.683              1.701              1.503
 Vibration    13          0.691              1.678              1.429
 Vibration    14          0.708              1.630              1.296
 Vibration    15          0.728              1.572              1.160
 Vibration    16          0.731              1.564              1.141
 Vibration    17          0.765              1.472              0.967
 Vibration    18          0.781              1.431              0.899
 Vibration    19          0.818              1.339              0.766
 Vibration    20          0.835              1.297              0.714
 Vibration    21          0.850              1.262              0.672
 Vibration    22          0.872              1.212              0.617
 Vibration    23          0.903              1.144              0.549
 Vibration    24          0.936              1.076              0.487
 Vibration    25          0.944              1.059              0.472
 Vibration    26          0.964              1.021              0.441

 Optimization completed.
    -- Stationary point found.
 Normal termination of Gaussian 16 at Tue Nov 14 19:53:35 2023.
