 Gaussian 16, Revision C.01,
 Gaussian 16:  ES64L-G16RevC.01  3-Jul-2019

 -----------------------------------------
 # opt freq=noraman m062x def2tzvp pop=nbo
 -----------------------------------------

 ------------
 Structure697
 ------------
 Symbolic Z-matrix:
 Charge =  0 Multiplicity = 1

 SCF Done:  E(RM062X) =  -927.762240091     A.U. after   14 cycles
 SCF Done:  E(RM062X) =  -927.765378614     A.U. after   12 cycles
 SCF Done:  E(RM062X) =  -927.765639514     A.U. after   11 cycles
 SCF Done:  E(RM062X) =  -927.765660429     A.U. after   10 cycles
 SCF Done:  E(RM062X) =  -927.765663494     A.U. after    9 cycles
 SCF Done:  E(RM062X) =  -927.765664653     A.U. after    7 cycles
 SCF Done:  E(RM062X) =  -927.765665527     A.U. after    8 cycles
 SCF Done:  E(RM062X) =  -927.765666083     A.U. after    8 cycles
 SCF Done:  E(RM062X) =  -927.765666500     A.U. after    8 cycles
 SCF Done:  E(RM062X) =  -927.765666636     A.U. after    7 cycles
 Optimization completed.
    -- Stationary point found.
 Normal termination of Gaussian 16 at Wed Nov  1 03:19:01 2023.

 --------------------------------------------------------------------
 #N Geom=AllCheck Guess=TCheck SCRF=Check GenChk RM062X/def2TZVP Freq
 --------------------------------------------------------------------

 Structure from the checkpoint file:  "ph_fluorene_cp_methyl_idp_1_1_m062x.chk"
 ------------
 Structure697
 ------------
 Charge =  0 Multiplicity = 1

                         Standard orientation:
 ---------------------------------------------------------------------
 Center     Atomic      Atomic             Coordinates (Angstroms)
 Number     Number       Type             X           Y           Z
 ---------------------------------------------------------------------
      1          6           0       -6.321464   -0.279112   -0.001037
      2          6           0       -3.071346   -2.251507   -0.140761
      3          6           0       -4.421000   -1.929283   -0.102902
      4          6           0       -4.853089   -0.605816   -0.006874
      5          6           0       -3.900917    0.412391    0.056775
      6          1           0       -2.759189   -3.286281   -0.212521
      7          1           0       -5.160434   -2.720343   -0.146161
      8          1           0       -4.229093    1.444303    0.137868
      9          6           0       -2.137971   -1.227599   -0.080071
     10          6           0       -2.554638    0.102201    0.019392
     11          6           0       -0.203862    0.067239   -0.002444
     12          6           0       -0.673608   -1.250809   -0.091345
     13          6           0        0.212994   -2.313713   -0.165140
     14          6           0        1.575830   -2.056386   -0.147266
     15          6           0        2.063467   -0.751234   -0.056098
     16          6           0        1.156883    0.312865    0.016935
     17          1           0       -0.148202   -3.331879   -0.242899
     18          1           0        2.277475   -2.877004   -0.229323
     19          1           0        1.542648    1.319081    0.116651
     20          6           0       -0.398429    3.109162    0.960392
     21          6           0       -1.333451    1.943225    1.322694
     22          6           0       -1.369511    1.040971    0.072169
     23          6           0       -1.358652    2.088265   -1.060634
     24          6           0       -0.396018    3.186634   -0.586450
     25          1           0       -2.345553    2.314555    1.499444
     26          1           0       -1.021946    1.397461    2.213021
     27          1           0       -1.083526    1.652230   -2.020854
     28          1           0       -2.370120    2.490452   -1.156221
     29          1           0        0.607162    2.927628    1.339852
     30          1           0       -0.737881    4.039317    1.414844
     31          1           0       -0.703755    4.166636   -0.949506
     32          1           0        0.605707    3.009751   -0.979164
     33          6           0        6.278087    0.002489   -0.003026
     34          6           0        5.425402    0.846422   -0.701131
     35          6           0        4.060873    0.601309   -0.717828
     36          6           0        3.521311   -0.491633   -0.038047
     37          6           0        4.389676   -1.332372    0.659490
     38          6           0        5.754312   -1.088143    0.677357
     39          1           0        7.343162    0.193287    0.010601
     40          1           0        5.825148    1.694383   -1.242348
     41          1           0        3.404930    1.249404   -1.286270
     42          1           0        3.985747   -2.170725    1.213363
     43          1           0        6.410150   -1.747267    1.231573
     44          1           0       -6.526137    0.605686    0.601710
     45          1           0       -6.677138   -0.077055   -1.014051
     46          1           0       -6.908433   -1.107028    0.395498
 ---------------------------------------------------------------------

 SCF Done:  E(RM062X) =  -927.765666637     A.U. after    1 cycles

 The electronic state is 1-A.
 Alpha  occ. eigenvalues --  -10.55273 -10.55051 -10.54909 -10.54775 -10.54306
 Alpha  occ. eigenvalues --  -10.54232 -10.54103 -10.54080 -10.54037 -10.54029
 Alpha  occ. eigenvalues --  -10.53990 -10.53987 -10.53969 -10.53959 -10.53919
 Alpha  occ. eigenvalues --  -10.53916 -10.53871 -10.53649 -10.53534 -10.53346
 Alpha  occ. eigenvalues --  -10.53316 -10.53128 -10.53075 -10.53023  -1.00236
 Alpha  occ. eigenvalues --   -0.97196  -0.95146  -0.94087  -0.90220  -0.86392
 Alpha  occ. eigenvalues --   -0.85870  -0.84586  -0.83763  -0.81821  -0.80715
 Alpha  occ. eigenvalues --   -0.79190  -0.76864  -0.72273  -0.70495  -0.69144
 Alpha  occ. eigenvalues --   -0.66892  -0.66325  -0.65142  -0.65035  -0.62743
 Alpha  occ. eigenvalues --   -0.59297  -0.58535  -0.55999  -0.55593  -0.54135
 Alpha  occ. eigenvalues --   -0.53897  -0.52103  -0.51623  -0.50872  -0.50505
 Alpha  occ. eigenvalues --   -0.50134  -0.49375  -0.48985  -0.48819  -0.47775
 Alpha  occ. eigenvalues --   -0.47468  -0.46128  -0.45218  -0.44309  -0.44015
 Alpha  occ. eigenvalues --   -0.43432  -0.42064  -0.41996  -0.40225  -0.40133
 Alpha  occ. eigenvalues --   -0.39997  -0.39933  -0.39718  -0.39261  -0.38065
 Alpha  occ. eigenvalues --   -0.37416  -0.36711  -0.34417  -0.30939  -0.30596
 Alpha  occ. eigenvalues --   -0.30245  -0.29649  -0.25324
 Alpha virt. eigenvalues --   -0.01679   0.01052   0.02137   0.02965   0.03425
 Alpha virt. eigenvalues --    0.05918   0.07040   0.07468   0.08467   0.08889
 Alpha virt. eigenvalues --    0.09083   0.10001   0.10299   0.10608   0.11532

 Mulliken charges:
               1
     1  C   -0.484781
     2  C   -0.257357
     3  C   -0.158218
     4  C    0.094057
     5  C   -0.247232
     6  H    0.140429
     7  H    0.137885
     8  H    0.166602
     9  C    0.092966
    10  C    0.135115
    11  C   -0.125769
    12  C    0.102520
    13  C   -0.246864
    14  C   -0.192266
    15  C    0.076310
    16  C   -0.212780
    17  H    0.139167
    18  H    0.161184
    19  H    0.209023
    20  C   -0.320716
    21  C   -0.275065
    22  C   -0.003000
    23  C   -0.266571
    24  C   -0.325772
    25  H    0.156839
    26  H    0.159087
    27  H    0.157694
    28  H    0.156692
    29  H    0.165654
    30  H    0.141464
    31  H    0.141889
    32  H    0.159457
    33  C   -0.148526
    34  C   -0.154654
    35  C   -0.219360
    36  C    0.099775
    37  C   -0.219408
    38  C   -0.152880
    39  H    0.141709
    40  H    0.142369
    41  H    0.172454
    42  H    0.167420
    43  H    0.142754
    44  H    0.145730
    45  H    0.160150
    46  H    0.144822
 Sum of Mulliken charges =  -0.00000

 Dipole moment (field-independent basis, Debye):
    X=             -0.6426    Y=              0.7412    Z=              0.0479  Tot=              0.9821
 Quadrupole moment (field-independent basis, Debye-Ang):
   XX=           -127.8971   YY=           -131.1476   ZZ=           -147.3908
   XY=             -0.9567   XZ=              0.8185   YZ=             -2.5075

  Exact polarizability:     425.012       9.920     263.717       3.644      -8.891     165.430
 Approx polarizability:     449.859       7.058     365.067       4.667     -15.526     240.050

 Summary of Natural Population Analysis:

                                       Natural Population
                Natural  -----------------------------------------------
    Atom  No    Charge         Core      Valence    Rydberg      Total
 -----------------------------------------------------------------------
      C    1   -0.61784      1.99945     4.60726    0.01113     6.61784
      C    2   -0.18176      1.99913     4.16542    0.01720     6.18176
      C    3   -0.20856      1.99915     4.19261    0.01680     6.20856
      C    4   -0.01575      1.99918     3.99869    0.01788     6.01575
      C    5   -0.21209      1.99900     4.19620    0.01689     6.21209
      H    6    0.21216      0.00000     0.78658    0.00125     0.78784
      H    7    0.20838      0.00000     0.79051    0.00112     0.79162
      H    8    0.20453      0.00000     0.79323    0.00224     0.79547
      C    9   -0.06353      1.99905     4.04610    0.01838     6.06353
      C   10    0.03584      1.99909     3.94635    0.01873     5.96416
      C   11    0.02575      1.99908     3.95576    0.01941     5.97425
      C   12   -0.04950      1.99906     4.03231    0.01813     6.04950
      C   13   -0.18688      1.99913     4.17077    0.01697     6.18688
      C   14   -0.19336      1.99916     4.17739    0.01680     6.19336
      C   15   -0.04742      1.99912     4.02880    0.01951     6.04742
      C   16   -0.20433      1.99902     4.18913    0.01619     6.20433
      H   17    0.21335      0.00000     0.78545    0.00119     0.78665
      H   18    0.21428      0.00000     0.78460    0.00112     0.78572
      H   19    0.21247      0.00000     0.78496    0.00256     0.78753
      C   20   -0.41099      1.99950     4.40021    0.01129     6.41099
      C   21   -0.37715      1.99940     4.36464    0.01311     6.37715
      C   22   -0.09638      1.99928     4.07736    0.01974     6.09638
      C   23   -0.37580      1.99940     4.36325    0.01315     6.37580
      C   24   -0.40951      1.99950     4.39874    0.01128     6.40951
      H   25    0.20301      0.00000     0.79578    0.00122     0.79699
      H   26    0.22122      0.00000     0.77774    0.00104     0.77878
      H   27    0.22062      0.00000     0.77834    0.00104     0.77938
      H   28    0.20257      0.00000     0.79622    0.00122     0.79743
      H   29    0.20545      0.00000     0.79344    0.00112     0.79455
      H   30    0.21232      0.00000     0.78668    0.00100     0.78768
      H   31    0.21273      0.00000     0.78628    0.00100     0.78727
      H   32    0.20233      0.00000     0.79653    0.00114     0.79767
      C   33   -0.21527      1.99922     4.19764    0.01841     6.21527
      C   34   -0.20365      1.99923     4.18650    0.01791     6.20365
      C   35   -0.19987      1.99914     4.18312    0.01761     6.19987
      C   36   -0.04620      1.99910     4.02770    0.01939     6.04620
      C   37   -0.19801      1.99915     4.18097    0.01789     6.19801
      C   38   -0.20411      1.99923     4.18650    0.01838     6.20411
      H   39    0.21315      0.00000     0.78585    0.00100     0.78685
      H   40    0.21293      0.00000     0.78602    0.00105     0.78707
      H   41    0.21074      0.00000     0.78772    0.00154     0.78926
      H   42    0.21417      0.00000     0.78461    0.00122     0.78583
      H   43    0.21311      0.00000     0.78588    0.00101     0.78689
      H   44    0.21371      0.00000     0.78535    0.00094     0.78629
      H   45    0.21875      0.00000     0.78011    0.00114     0.78125
      H   46    0.21438      0.00000     0.78468    0.00093     0.78562
 =======================================================================
   * Total *   -0.00000     47.98076   117.58997    0.42926   166.00000

                      1                      2                      3
                      A                      A                      A
 Frequencies --     24.6555                42.7074                46.9040
 Red. masses --      4.1528                 1.0354                 3.6820
 Frc consts  --      0.0015                 0.0011                 0.0048
 IR Inten    --      0.0605                 0.2787                 0.2677

                      4                      5                      6
                      A                      A                      A
 Frequencies --     65.9993                71.6802                94.9781
 Red. masses --      4.5698                 3.7253                 3.9335
 Frc consts  --      0.0117                 0.0113                 0.0209
 IR Inten    --      0.1828                 0.2425                 0.3653

                      7                      8                      9
                      A                      A                      A
 Frequencies --    122.4519               133.8830               151.9807
 Red. masses --      3.1974                 3.2952                 2.7098
 Frc consts  --      0.0282                 0.0348                 0.0369
 IR Inten    --      0.1023                 0.0421                 0.0330

                     10                     11                     12
                      A                      A                      A
 Frequencies --    164.9117               180.5879               224.6607
 Red. masses --      2.8823                 2.8887                 4.1795
 Frc consts  --      0.0462                 0.0555                 0.1243
 IR Inten    --      0.3705                 0.3090                 0.0252

                     13                     14                     15
                      A                      A                      A
 Frequencies --    241.5445               256.4736               288.2672
 Red. masses --      3.4236                 2.9022                 4.2300
 Frc consts  --      0.1177                 0.1125                 0.2071
 IR Inten    --      0.4855                 0.0496                 0.1333

                     16                     17                     18
                      A                      A                      A
 Frequencies --    336.9869               345.3394               358.2483
 Red. masses --      3.8147                 3.7775                 3.5417
 Frc consts  --      0.2552                 0.2654                 0.2678
 IR Inten    --      0.5791                 0.4559                 0.5141

                     19                     20                     21
                      A                      A                      A
 Frequencies --    382.2619               413.0929               418.4738
 Red. masses --      3.6525                 4.1906                 2.9766
 Frc consts  --      0.3145                 0.4213                 0.3071
 IR Inten    --      0.1043                 1.7324                 0.2879

                     22                     23                     24
                      A                      A                      A
 Frequencies --    445.1539               477.4967               488.7070
 Red. masses --      4.1507                 3.5925                 3.2716
 Frc consts  --      0.4846                 0.4826                 0.4604
 IR Inten    --      6.3282                 8.1771                 0.1967

                     25                     26                     27
                      A                      A                      A
 Frequencies --    523.0749               566.8100               581.8465
 Red. masses --      3.6430                 3.8602                 3.0298
 Frc consts  --      0.5873                 0.7307                 0.6043
 IR Inten    --      3.5810                 2.6695                 0.3718

                     28                     29                     30
                      A                      A                      A
 Frequencies --    593.0224               608.4364               629.8716
 Red. masses --      6.0275                 3.4865                 4.4456
 Frc consts  --      1.2489                 0.7604                 1.0392
 IR Inten    --      0.8743                 0.6780                 0.1415

                     31                     32                     33
                      A                      A                      A
 Frequencies --    636.7273               671.6304               672.4278
 Red. masses --      3.4024                 3.5629                 4.8797
 Frc consts  --      0.8127                 0.9469                 1.3000
 IR Inten    --      0.2272                 0.8633                 0.3958

                     34                     35                     36
                      A                      A                      A
 Frequencies --    696.2626               722.5892               747.1547
 Red. masses --      3.6610                 1.7004                 4.3688
 Frc consts  --      1.0457                 0.5231                 1.4369
 IR Inten    --      7.6573                37.8240                 4.0531

                     37                     38                     39
                      A                      A                      A
 Frequencies --    761.9428               770.2657               789.1436
 Red. masses --      2.3722                 3.8817                 1.9427
 Frc consts  --      0.8114                 1.3569                 0.7128
 IR Inten    --      0.4352                 4.2676                39.3274

                     40                     41                     42
                      A                      A                      A
 Frequencies --    811.8767               818.9051               827.1507
 Red. masses --      2.3209                 2.1406                 1.7436
 Frc consts  --      0.9013                 0.8458                 0.7028
 IR Inten    --     12.9814                 2.1734                 1.0533

                     43                     44                     45
                      A                      A                      A
 Frequencies --    847.5315               864.6787               871.9339
 Red. masses --      1.4790                 5.1703                 1.7750
 Frc consts  --      0.6260                 2.2776                 0.7951
 IR Inten    --     33.9902                 0.6133                 3.7046

                     46                     47                     48
                      A                      A                      A
 Frequencies --    875.0471               903.4334               920.1121
 Red. masses --      1.2471                 2.7441                 1.4169
 Frc consts  --      0.5626                 1.3196                 0.7068
 IR Inten    --      0.2126                 1.1138                 3.7360

                     49                     50                     51
                      A                      A                      A
 Frequencies --    928.4142               933.3929               955.7000
 Red. masses --      2.4473                 1.4324                 1.5029
 Frc consts  --      1.2429                 0.7352                 0.8088
 IR Inten    --      2.8189                 5.2272                 0.7738

                     52                     53                     54
                      A                      A                      A
 Frequencies --    970.0590               977.6294               981.9375
 Red. masses --      1.4319                 1.8243                 1.4178
 Frc consts  --      0.7939                 1.0273                 0.8055
 IR Inten    --      0.6618                 0.5144                 0.4102

                     55                     56                     57
                      A                      A                      A
 Frequencies --    994.7349               997.8303              1008.7456
 Red. masses --      1.6426                 1.3797                 2.1546
 Frc consts  --      0.9576                 0.8094                 1.2917
 IR Inten    --      0.9850                 0.2041                 0.1347

                     58                     59                     60
                      A                      A                      A
 Frequencies --   1013.8808              1021.3977              1026.3154
 Red. masses --      1.2942                 5.5771                 2.8259
 Frc consts  --      0.7839                 3.4281                 1.7538
 IR Inten    --      0.0657                 0.8743                 2.6245

                     61                     62                     63
                      A                      A                      A
 Frequencies --   1035.1176              1058.0066              1059.8806
 Red. masses --      3.0227                 2.8096                 1.6588
 Frc consts  --      1.9082                 1.8530                 1.0979
 IR Inten    --      0.6535                 4.1466                 0.7911

                     64                     65                     66
                      A                      A                      A
 Frequencies --   1065.6286              1072.4205              1081.1581
 Red. masses --      1.5726                 2.1823                 1.8398
 Frc consts  --      1.0522                 1.4788                 1.2671
 IR Inten    --     12.6042                 0.0732                 1.4869

                     67                     68                     69
                      A                      A                      A
 Frequencies --   1113.6183              1133.8290              1142.8031
 Red. masses --      1.5224                 5.0235                 1.7575
 Frc consts  --      1.1124                 3.8050                 1.3524
 IR Inten    --      4.2218                 0.0143                 1.3244

                     70                     71                     72
                      A                      A                      A
 Frequencies --   1160.1810              1165.8754              1176.8941
 Red. masses --      1.5576                 1.3269                 1.2867
 Frc consts  --      1.2353                 1.0626                 1.0500
 IR Inten    --      7.6136                 1.2182                 0.0288

                     73                     74                     75
                      A                      A                      A
 Frequencies --   1177.8634              1208.4120              1224.3565
 Red. masses --      1.4883                 1.1255                 1.3420
 Frc consts  --      1.2165                 0.9684                 1.1853
 IR Inten    --      0.0366                 1.3016                 0.5179

                     76                     77                     78
                      A                      A                      A
 Frequencies --   1226.8696              1242.4510              1260.5859
 Red. masses --      1.6718                 2.0041                 1.2495
 Frc consts  --      1.4826                 1.8227                 1.1698
 IR Inten    --      0.3442                 1.2518                 2.0977

                     79                     80                     81
                      A                      A                      A
 Frequencies --   1264.8944              1278.9807              1298.1715
 Red. masses --      2.1871                 1.9361                 3.5853
 Frc consts  --      2.0617                 1.8660                 3.5599
 IR Inten    --      2.5513                16.2345                 1.1649

                     82                     83                     84
                      A                      A                      A
 Frequencies --   1310.4382              1311.1160              1315.1702
 Red. masses --      1.8297                 1.4829                 3.0000
 Frc consts  --      1.8512                 1.5019                 3.0573
 IR Inten    --      5.6637                 2.4243                 0.9871

                     85                     86                     87
                      A                      A                      A
 Frequencies --   1321.2272              1327.4425              1341.4975
 Red. masses --      2.1492                 1.7529                 1.4069
 Frc consts  --      2.2104                 1.8199                 1.4917
 IR Inten    --      0.2421                 4.0039                 0.2884

                     88                     89                     90
                      A                      A                      A
 Frequencies --   1350.9572              1353.4601              1356.7093
 Red. masses --      2.0208                 1.5884                 1.6111
 Frc consts  --      2.1730                 1.7144                 1.7472
 IR Inten    --      1.0937                 0.7632                 4.6466

                     91                     92                     93
                      A                      A                      A
 Frequencies --   1374.3199              1414.1159              1457.0359
 Red. masses --      3.4840                 1.2803                 3.2197
 Frc consts  --      3.8770                 1.5084                 4.0272
 IR Inten    --      1.9866                 0.3265                14.2994

                     94                     95                     96
                      A                      A                      A
 Frequencies --   1467.4119              1482.9412              1492.2067
 Red. masses --      2.2222                 1.0845                 1.0711
 Frc consts  --      2.8192                 1.4052                 1.4052
 IR Inten    --      7.1599                 3.4391                 5.4414

                     97                     98                     99
                      A                      A                      A
 Frequencies --   1492.4710              1495.8371              1502.0861
 Red. masses --      1.6403                 1.2026                 1.0800
 Frc consts  --      2.1527                 1.5854                 1.4357
 IR Inten    --      4.4359                 4.6485                 4.8843

                    100                    101                    102
                      A                      A                      A
 Frequencies --   1504.4828              1515.7738              1526.5828
 Red. masses --      1.8057                 2.2697                 1.1492
 Frc consts  --      2.4081                 3.0725                 1.5779
 IR Inten    --     25.5665                63.1366                13.6993

                    103                    104                    105
                      A                      A                      A
 Frequencies --   1538.5723              1553.1157              1638.5032
 Red. masses --      3.0381                 3.1787                 6.0798
 Frc consts  --      4.2373                 4.5176                 9.6169
 IR Inten    --      0.2148                 5.0708                 1.9278

                    106                    107                    108
                      A                      A                      A
 Frequencies --   1653.7566              1656.6865              1675.9403
 Red. masses --      6.6742                 7.0383                 6.0167
 Frc consts  --     10.7545                11.3814                 9.9570
 IR Inten    --      0.4245                 1.4492                16.2188

                    109                    110                    111
                      A                      A                      A
 Frequencies --   1682.4026              1688.5490              3062.2682
 Red. masses --      6.9775                 7.0649                 1.0383
 Frc consts  --     11.6361                11.8681                 5.7368
 IR Inten    --      1.7437                 5.3444                30.7870

                    112                    113                    114
                      A                      A                      A
 Frequencies --   3069.6614              3074.1252              3087.2330
 Red. masses --      1.0645                 1.0643                 1.0617
 Frc consts  --      5.9098                 5.9260                 5.9620
 IR Inten    --     13.7514                23.9176                16.9603

                    115                    116                    117
                      A                      A                      A
 Frequencies --   3095.4129              3116.4785              3124.0879
 Red. masses --      1.0636                 1.1013                 1.0977
 Frc consts  --      6.0043                 6.3019                 6.3123
 IR Inten    --     31.6279                10.9136                11.8376

                    118                    119                    120
                      A                      A                      A
 Frequencies --   3127.8579              3132.7170              3142.4465
 Red. masses --      1.1000                 1.1036                 1.1055
 Frc consts  --      6.3405                 6.3810                 6.4320
 IR Inten    --      2.7310                 9.1849                52.4776

                    121                    122                    123
                      A                      A                      A
 Frequencies --   3148.6709              3173.3127              3192.6979
 Red. masses --      1.1029                 1.0900                 1.0873
 Frc consts  --      6.4421                 6.4671                 6.5300
 IR Inten    --     10.0205                13.2604                10.2632

                    124                    125                    126
                      A                      A                      A
 Frequencies --   3198.1141              3200.1854              3202.9892
 Red. masses --      1.0857                 1.0876                 1.0877
 Frc consts  --      6.5425                 6.5628                 6.5744
 IR Inten    --      8.1911                 4.0339                 0.8618

                    127                    128                    129
                      A                      A                      A
 Frequencies --   3209.6350              3211.2834              3217.2637
 Red. masses --      1.0949                 1.0912                 1.0945
 Frc consts  --      6.6457                 6.6297                 6.6746
 IR Inten    --     14.2820                 4.6123                 3.3703

                    130                    131                    132
                      A                      A                      A
 Frequencies --   3219.3049              3227.0973              3229.0473
 Red. masses --      1.0944                 1.0895                 1.0980
 Frc consts  --      6.6829                 6.6851                 6.7453
 IR Inten    --     18.8886                 2.6859                15.9997

 - Thermochemistry -
 -------------------
 Temperature   298.150 Kelvin.  Pressure   1.00000 Atm.
 Atom     1 has atomic number  6 and mass  12.00000

 Molecular mass:   310.17215 amu.
 Principal axes and moments of inertia in atomic units:
                           1         2         3
     Eigenvalues --  3200.40249********************
           X            1.00000  -0.00143   0.00020
           Y            0.00143   0.99999  -0.00352
           Z           -0.00020   0.00352   0.99999
 This molecule is an asymmetric top.
 Rotational symmetry number  1.
 Warning -- assumption of classical behavior for rotation
           may cause significant error
 Rotational temperatures (Kelvin)      0.02706     0.00627     0.00531
 Rotational constants (GHZ):           0.56391     0.13061     0.11070
 Zero-point vibrational energy    1028848.6 (Joules/Mol)
                                  245.90072 (Kcal/Mol)
 Warning -- explicit consideration of  29 degrees of freedom as
           vibrations may cause significant error
 Vibrational temperatures:     35.47    61.45    67.48    94.96   103.13
          (Kelvin)            136.65   176.18   192.63   218.67   237.27
                              259.83   323.24   347.53   369.01   414.75
                              484.85   496.87   515.44   549.99   594.35
                              602.09   640.48   687.01   703.14   752.59
                              815.51   837.15   853.23   875.40   906.24
                              916.11   966.33   967.47  1001.77  1039.64
                             1074.99  1096.27  1108.24  1135.40  1168.11
                             1178.22  1190.09  1219.41  1244.08  1254.52
                             1259.00  1299.84  1323.84  1335.78  1342.94
                             1375.04  1395.70  1406.59  1412.79  1431.20
                             1435.66  1451.36  1458.75  1469.56  1476.64
                             1489.30  1522.24  1524.93  1533.20  1542.97
                             1555.55  1602.25  1631.33  1644.24  1669.24
                             1677.43  1693.29  1694.68  1738.64  1761.58
                             1765.19  1787.61  1813.70  1819.90  1840.17
                             1867.78  1885.43  1886.40  1892.24  1900.95
                             1909.89  1930.12  1943.73  1947.33  1952.00
                             1977.34  2034.60  2096.35  2111.28  2133.62
                             2146.95  2147.33  2152.18  2161.17  2164.62
                             2180.86  2196.41  2213.66  2234.59  2357.44
                             2379.39  2383.60  2411.30  2420.60  2429.45
                             4405.92  4416.56  4422.98  4441.84  4453.61
                             4483.92  4494.87  4500.29  4507.28  4521.28
                             4530.24  4565.69  4593.58  4601.37  4604.35
                             4608.39  4617.95  4620.32  4628.92  4631.86
                             4643.07  4645.88

 Zero-point correction=                           0.391868 (Hartree/Particle)
 Thermal correction to Energy=                    0.411146
 Thermal correction to Enthalpy=                  0.412090
 Thermal correction to Gibbs Free Energy=         0.343279
 Sum of electronic and zero-point Energies=           -927.373799
 Sum of electronic and thermal Energies=              -927.354521
 Sum of electronic and thermal Enthalpies=            -927.353577
 Sum of electronic and thermal Free Energies=         -927.422388

                     E (Thermal)             CV                S
                      KCal/Mol        Cal/Mol-Kelvin    Cal/Mol-Kelvin
 Total                  257.998             78.266            144.825
 Electronic               0.000              0.000              0.000
 Translational            0.889              2.981             43.092
 Rotational               0.889              2.981             34.932
 Vibrational            256.220             72.305             66.801
 Vibration     1          0.593              1.985              6.219
 Vibration     2          0.595              1.980              5.129
 Vibration     3          0.595              1.979              4.944
 Vibration     4          0.597              1.970              4.269
 Vibration     5          0.598              1.968              4.107
 Vibration     6          0.603              1.953              3.555
 Vibration     7          0.610              1.930              3.061
 Vibration     8          0.613              1.919              2.889
 Vibration     9          0.619              1.900              2.647
 Vibration    10          0.623              1.886              2.493
 Vibration    11          0.630              1.866              2.322
 Vibration    12          0.649              1.803              1.921
 Vibration    13          0.658              1.777              1.791
 Vibration    14          0.666              1.752              1.686
 Vibration    15          0.685              1.696              1.484
 Vibration    16          0.718              1.602              1.226
 Vibration    17          0.724              1.585              1.187
 Vibration    18          0.733              1.558              1.130
 Vibration    19          0.752              1.508              1.030
 Vibration    20          0.777              1.442              0.916
 Vibration    21          0.781              1.430              0.897
 Vibration    22          0.805              1.372              0.811
 Vibration    23          0.834              1.300              0.717
 Vibration    24          0.845              1.275              0.687
 Vibration    25          0.878              1.199              0.603
 Vibration    26          0.923              1.103              0.510
 Vibration    27          0.939              1.071              0.482
 Vibration    28          0.951              1.047              0.462
 Vibration    29          0.967              1.014              0.435

                           ! Non-Optimized Parameters !
 Normal termination of Gaussian 16 at Wed Nov  1 08:41:11 2023.
