 Gaussian 16, Revision C.01,
 Gaussian 16:  ES64L-G16RevC.01  3-Jul-2019

 -----------------------------------------
 # opt freq=noraman m062x def2tzvp pop=nbo
 -----------------------------------------

 ------------
 Structure697
 ------------
 Symbolic Z-matrix:
 Charge =  0 Multiplicity = 1

 SCF Done:  E(RM062X) =  -888.452028601     A.U. after   14 cycles
 SCF Done:  E(RM062X) =  -888.454628050     A.U. after   12 cycles
 SCF Done:  E(RM062X) =  -888.454926351     A.U. after   11 cycles
 SCF Done:  E(RM062X) =  -888.454971298     A.U. after   10 cycles
 SCF Done:  E(RM062X) =  -888.454975618     A.U. after    8 cycles
 SCF Done:  E(RM062X) =  -888.454978296     A.U. after    9 cycles
 SCF Done:  E(RM062X) =  -888.454979072     A.U. after    8 cycles
 SCF Done:  E(RM062X) =  -888.454979394     A.U. after    7 cycles
 SCF Done:  E(RM062X) =  -888.454979452     A.U. after    6 cycles
 Optimization completed.
    -- Stationary point found.
 Normal termination of Gaussian 16 at Tue Nov 14 16:47:54 2023.

 --------------------------------------------------------------------
 #N Geom=AllCheck Guess=TCheck SCRF=Check GenChk RM062X/def2TZVP Freq
 --------------------------------------------------------------------

 Structure from the checkpoint file:  "ph_fluorene_cp_7_1_m062x.chk"
 ------------
 Structure697
 ------------
 Charge =  0 Multiplicity = 1

                         Standard orientation:
 ---------------------------------------------------------------------
 Center     Atomic      Atomic             Coordinates (Angstroms)
 Number     Number       Type             X           Y           Z
 ---------------------------------------------------------------------
      1          6           0       -3.206275   -2.444937   -0.129817
      2          6           0       -4.570516   -2.184105   -0.108368
      3          6           0       -5.040059   -0.876929   -0.027822
      4          6           0       -4.151001    0.192177    0.035208
      5          1           0       -2.843383   -3.463564   -0.191888
      6          1           0       -5.275661   -3.003846   -0.154029
      7          1           0       -4.523828    1.208508    0.101110
      8          6           0       -2.321920   -1.377446   -0.070945
      9          6           0       -2.791915   -0.062410    0.012162
     10          6           0       -0.450387   -0.003176   -0.016442
     11          6           0       -0.855989   -1.339873   -0.080556
     12          6           0        0.086342   -2.356109   -0.134935
     13          6           0        1.433140   -2.024264   -0.120372
     14          6           0        1.853800   -0.692507   -0.056432
     15          6           0        0.891650    0.321506   -0.007506
     16          1           0       -0.217645   -3.393926   -0.195579
     17          1           0        2.177700   -2.807608   -0.186624
     18          1           0        1.209081    1.356561    0.064008
     19          6           0       -1.322440    3.219963    0.896822
     20          6           0       -1.656533    1.799975    1.354241
     21          6           0       -1.644954    0.927113    0.059513
     22          6           0       -1.677421    1.969445   -1.102869
     23          6           0       -2.031467    3.307640   -0.451699
     24          1           0       -2.662140    1.787641    1.779530
     25          1           0       -0.975007    1.408778    2.108524
     26          1           0       -0.681514    2.036987   -1.545283
     27          1           0       -2.366999    1.669876   -1.891071
     28          1           0       -0.244036    3.331517    0.752817
     29          1           0       -1.642020    3.978329    1.611417
     30          1           0       -3.111113    3.381165   -0.293103
     31          1           0       -1.725682    4.162585   -1.054561
     32          6           0        6.024947    0.271369   -0.016118
     33          6           0        5.554409   -0.826844    0.690506
     34          6           0        4.203720   -1.139367    0.676448
     35          6           0        3.296799   -0.360306   -0.043200
     36          6           0        3.782730    0.740960   -0.749183
     37          6           0        5.133297    1.054084   -0.736532
     38          1           0        7.079121    0.515462   -0.005511
     39          1           0        6.240689   -1.438441    1.262064
     40          1           0        3.840350   -1.982953    1.250131
     41          1           0        3.096702    1.341271   -1.334010
     42          1           0        5.491873    1.907181   -1.298113
     43          1           0       -6.106230   -0.691282   -0.012453
 ---------------------------------------------------------------------

 SCF Done:  E(RM062X) =  -888.454979452     A.U. after    1 cycles

 The electronic state is 1-A.
 Alpha  occ. eigenvalues --  -10.55512 -10.55174 -10.55127 -10.54400 -10.54356
 Alpha  occ. eigenvalues --  -10.54247 -10.54222 -10.54196 -10.54173 -10.54159
 Alpha  occ. eigenvalues --  -10.54120 -10.54088 -10.54082 -10.54065 -10.54063
 Alpha  occ. eigenvalues --  -10.54016 -10.54005 -10.53996 -10.53895 -10.53442
 Alpha  occ. eigenvalues --  -10.53406 -10.53203 -10.53157  -1.00321  -0.97285
 Alpha  occ. eigenvalues --   -0.94966  -0.94298  -0.89854  -0.86705  -0.84811
 Alpha  occ. eigenvalues --   -0.84671  -0.83921  -0.80781  -0.79954  -0.79004
 Alpha  occ. eigenvalues --   -0.72887  -0.70750  -0.69189  -0.67675  -0.66473
 Alpha  occ. eigenvalues --   -0.66064  -0.65037  -0.62995  -0.59855  -0.58814
 Alpha  occ. eigenvalues --   -0.56216  -0.55896  -0.54343  -0.54178  -0.52394
 Alpha  occ. eigenvalues --   -0.51720  -0.51003  -0.50630  -0.49618  -0.49101
 Alpha  occ. eigenvalues --   -0.48825  -0.48388  -0.47839  -0.47479  -0.44692
 Alpha  occ. eigenvalues --   -0.44261  -0.43877  -0.42616  -0.41883  -0.40701
 Alpha  occ. eigenvalues --   -0.40396  -0.40292  -0.39899  -0.39789  -0.39411
 Alpha  occ. eigenvalues --   -0.39083  -0.37546  -0.36933  -0.34976  -0.31034
 Alpha  occ. eigenvalues --   -0.30908  -0.30349  -0.29842  -0.25782
 Alpha virt. eigenvalues --   -0.01918   0.00881   0.02060   0.02813   0.03433
 Alpha virt. eigenvalues --    0.06102   0.07351   0.07736   0.08633   0.08863
 Alpha virt. eigenvalues --    0.09452   0.10213   0.10468   0.10869   0.11310

 Mulliken charges:
               1
     1  C   -0.243043
     2  C   -0.143315
     3  C   -0.149324
     4  C   -0.232681
     5  H    0.139581
     6  H    0.140919
     7  H    0.163668
     8  C    0.079595
     9  C    0.047230
    10  C    0.014332
    11  C    0.110210
    12  C   -0.245103
    13  C   -0.196368
    14  C    0.113361
    15  C   -0.297858
    16  H    0.140750
    17  H    0.162813
    18  H    0.211624
    19  C   -0.259043
    20  C   -0.311028
    21  C   -0.004462
    22  C   -0.316420
    23  C   -0.253484
    24  H    0.164341
    25  H    0.164653
    26  H    0.164505
    27  H    0.163144
    28  H    0.136756
    29  H    0.142973
    30  H    0.136482
    31  H    0.142321
    32  C   -0.148383
    33  C   -0.152800
    34  C   -0.221066
    35  C    0.101293
    36  C   -0.216121
    37  C   -0.153171
    38  H    0.142109
    39  H    0.143091
    40  H    0.168125
    41  H    0.166199
    42  H    0.142819
    43  H    0.140777
 Sum of Mulliken charges =  -0.00000

 Dipole moment (field-independent basis, Debye):
    X=             -0.1213    Y=              0.7480    Z=              0.0828  Tot=              0.7623
 Quadrupole moment (field-independent basis, Debye-Ang):
   XX=           -124.0663   YY=           -124.5360   ZZ=           -140.8296
   XY=             -0.7831   XZ=              0.6515   YZ=             -2.7171

  Exact polarizability:     389.885      14.634     258.609       4.340      -9.505     157.191
 Approx polarizability:     428.054      11.375     351.809       5.334     -16.976     227.794

 Summary of Natural Population Analysis:

                                       Natural Population
                Natural  -----------------------------------------------
    Atom  No    Charge         Core      Valence    Rydberg      Total
 -----------------------------------------------------------------------
      C    1   -0.19030      1.99913     4.17401    0.01717     6.19030
      C    2   -0.21107      1.99925     4.19385    0.01797     6.21107
      C    3   -0.20409      1.99925     4.18688    0.01796     6.20409
      C    4   -0.21830      1.99908     4.20121    0.01801     6.21830
      H    5    0.21253      0.00000     0.78621    0.00125     0.78747
      H    6    0.21288      0.00000     0.78614    0.00099     0.78712
      H    7    0.20940      0.00000     0.78826    0.00235     0.79060
      C    8   -0.05561      1.99905     4.03799    0.01856     6.05561
      C    9    0.02934      1.99909     3.95260    0.01897     5.97066
      C   10    0.03577      1.99909     3.94594    0.01920     5.96423
      C   11   -0.05592      1.99905     4.03880    0.01806     6.05592
      C   12   -0.18347      1.99913     4.16739    0.01694     6.18347
      C   13   -0.19578      1.99917     4.17978    0.01683     6.19578
      C   14   -0.04295      1.99912     4.02439    0.01944     6.04295
      C   15   -0.20575      1.99901     4.19026    0.01648     6.20575
      H   16    0.21373      0.00000     0.78507    0.00120     0.78627
      H   17    0.21469      0.00000     0.78419    0.00112     0.78531
      H   18    0.21090      0.00000     0.78598    0.00312     0.78910
      C   19   -0.39944      1.99948     4.38815    0.01181     6.39944
      C   20   -0.37957      1.99941     4.36697    0.01319     6.37957
      C   21   -0.10174      1.99929     4.08289    0.01955     6.10174
      C   22   -0.38031      1.99941     4.36775    0.01315     6.38031
      C   23   -0.39944      1.99948     4.38817    0.01178     6.39944
      H   24    0.20791      0.00000     0.79079    0.00130     0.79209
      H   25    0.22200      0.00000     0.77697    0.00102     0.77800
      H   26    0.20763      0.00000     0.79114    0.00123     0.79237
      H   27    0.22147      0.00000     0.77750    0.00104     0.77853
      H   28    0.19405      0.00000     0.80465    0.00129     0.80595
      H   29    0.21339      0.00000     0.78557    0.00104     0.78661
      H   30    0.19333      0.00000     0.80527    0.00140     0.80667
      H   31    0.21293      0.00000     0.78603    0.00104     0.78707
      C   32   -0.21461      1.99922     4.19698    0.01841     6.21461
      C   33   -0.20410      1.99923     4.18646    0.01841     6.20410
      C   34   -0.19773      1.99915     4.18062    0.01797     6.19773
      C   35   -0.04836      1.99910     4.02911    0.02015     6.04836
      C   36   -0.19857      1.99914     4.18164    0.01779     6.19857
      C   37   -0.20430      1.99923     4.18670    0.01838     6.20430
      H   38    0.21332      0.00000     0.78568    0.00100     0.78668
      H   39    0.21330      0.00000     0.78568    0.00102     0.78670
      H   40    0.21436      0.00000     0.78442    0.00122     0.78564
      H   41    0.21305      0.00000     0.78582    0.00113     0.78695
      H   42    0.21309      0.00000     0.78588    0.00103     0.78691
      H   43    0.21234      0.00000     0.78666    0.00100     0.78766
 =======================================================================
   * Total *    0.00000     45.98154   111.59647    0.42199   158.00000

                      1                      2                      3
                      A                      A                      A
 Frequencies --     33.9567                46.2596                51.7843
 Red. masses --      4.3289                 3.6794                 3.4385
 Frc consts  --      0.0029                 0.0046                 0.0054
 IR Inten    --      0.0306                 0.2184                 0.0264

                      4                      5                      6
                      A                      A                      A
 Frequencies --     77.3152                84.5775               123.5444
 Red. masses --      4.3096                 3.6836                 3.4913
 Frc consts  --      0.0152                 0.0155                 0.0314
 IR Inten    --      0.0989                 0.4468                 0.1218

                      7                      8                      9
                      A                      A                      A
 Frequencies --    125.5638               171.5937               184.8333
 Red. masses --      4.1976                 3.8548                 3.9837
 Frc consts  --      0.0390                 0.0669                 0.0802
 IR Inten    --      0.2526                 0.4681                 0.0729

                     10                     11                     12
                      A                      A                      A
 Frequencies --    214.1578               266.2261               270.9878
 Red. masses --      3.4002                 3.4626                 4.0546
 Frc consts  --      0.0919                 0.1446                 0.1754
 IR Inten    --      0.0706                 0.3078                 0.1917

                     13                     14                     15
                      A                      A                      A
 Frequencies --    308.8054               341.2932               354.3597
 Red. masses --      1.9659                 4.1831                 3.7789
 Frc consts  --      0.1105                 0.2871                 0.2796
 IR Inten    --      0.1103                 0.3255                 0.4186

                     16                     17                     18
                      A                      A                      A
 Frequencies --    372.5908               400.8874               418.9714
 Red. masses --      4.0791                 4.0605                 2.9456
 Frc consts  --      0.3336                 0.3845                 0.3046
 IR Inten    --      0.2470                 1.3117                 0.2123

                     19                     20                     21
                      A                      A                      A
 Frequencies --    460.6078               482.4085               494.1147
 Red. masses --      4.0210                 4.8407                 3.2517
 Frc consts  --      0.5026                 0.6637                 0.4678
 IR Inten    --      7.2296                 2.3015                 2.1570

                     22                     23                     24
                      A                      A                      A
 Frequencies --    517.3896               537.5466               558.3325
 Red. masses --      3.8905                 1.7596                 3.8011
 Frc consts  --      0.6136                 0.2996                 0.6982
 IR Inten    --      2.6338                 0.8668                 3.1970

                     25                     26                     27
                      A                      A                      A
 Frequencies --    583.1937               623.7076               630.6967
 Red. masses --      3.5474                 4.8202                 6.3842
 Frc consts  --      0.7109                 1.1048                 1.4962
 IR Inten    --      3.1576                 1.3248                 0.0236

                     28                     29                     30
                      A                      A                      A
 Frequencies --    637.0211               654.1543               665.3564
 Red. masses --      5.6549                 3.0435                 3.4892
 Frc consts  --      1.3520                 0.7673                 0.9101
 IR Inten    --      0.1447                 0.6792                 2.4914

                     31                     32                     33
                      A                      A                      A
 Frequencies --    711.7134               723.5911               735.2946
 Red. masses --      4.5494                 1.7186                 4.4734
 Frc consts  --      1.3577                 0.5302                 1.4250
 IR Inten    --      5.5931                36.9174                 4.2535

                     34                     35                     36
                      A                      A                      A
 Frequencies --    765.1885               780.3952               789.0278
 Red. masses --      1.9780                 1.9674                 1.9428
 Frc consts  --      0.6823                 0.7060                 0.7126
 IR Inten    --     35.1844                29.4152                42.4027

                     37                     38                     39
                      A                      A                      A
 Frequencies --    798.0267               819.8464               850.7670
 Red. masses --      3.7245                 2.7763                 1.9404
 Frc consts  --      1.3975                 1.0995                 0.8275
 IR Inten    --      4.7694                 1.9021                 2.6341

                     40                     41                     42
                      A                      A                      A
 Frequencies --    858.2715               868.5426               876.3823
 Red. masses --      2.4435                 1.5657                 1.2468
 Frc consts  --      1.0605                 0.6959                 0.5642
 IR Inten    --      2.9347                13.1194                 0.1450

                     43                     44                     45
                      A                      A                      A
 Frequencies --    888.1122               903.0443               929.9099
 Red. masses --      2.0124                 1.5987                 1.5092
 Frc consts  --      0.9352                 0.7682                 0.7689
 IR Inten    --      0.8364                 0.3726                 6.0253

                     46                     47                     48
                      A                      A                      A
 Frequencies --    933.8899               953.8230               961.6296
 Red. masses --      2.4472                 1.5207                 1.5086
 Frc consts  --      1.2575                 0.8151                 0.8220
 IR Inten    --      2.3582                 0.6100                 0.4721

                     49                     50                     51
                      A                      A                      A
 Frequencies --    966.4700               974.6069               983.1936
 Red. masses --      1.5867                 1.8018                 1.3787
 Frc consts  --      0.8732                 1.0083                 0.7852
 IR Inten    --      0.8289                 1.2623                 0.5966

                     52                     53                     54
                      A                      A                      A
 Frequencies --    996.7609               998.8028               998.9561
 Red. masses --      3.4837                 1.3823                 1.3244
 Frc consts  --      2.0393                 0.8125                 0.7787
 IR Inten    --      1.2550                 0.1450                 0.0392

                     55                     56                     57
                      A                      A                      A
 Frequencies --   1015.2511              1021.6934              1029.8261
 Red. masses --      1.2942                 5.6680                 6.7154
 Frc consts  --      0.7859                 3.4860                 4.1961
 IR Inten    --      0.0521                 0.8275                 2.3622

                     58                     59                     60
                      A                      A                      A
 Frequencies --   1049.9033              1056.5479              1059.4614
 Red. masses --      1.7340                 2.7400                 1.9522
 Frc consts  --      1.1262                 1.8021                 1.2911
 IR Inten    --      1.6036                 4.5388                 2.9685

                     61                     62                     63
                      A                      A                      A
 Frequencies --   1076.3961              1083.7843              1099.3672
 Red. masses --      1.7128                 1.6073                 5.8509
 Frc consts  --      1.1693                 1.1123                 4.1663
 IR Inten    --      2.3161                 0.0281                 0.3028

                     64                     65                     66
                      A                      A                      A
 Frequencies --   1113.8829              1132.8839              1139.5997
 Red. masses --      1.5193                 1.7090                 1.6554
 Frc consts  --      1.1106                 1.2923                 1.2666
 IR Inten    --      4.5688                 2.0396                 2.4041

                     67                     68                     69
                      A                      A                      A
 Frequencies --   1161.3327              1174.9976              1177.5810
 Red. masses --      1.3640                 1.2438                 1.1448
 Frc consts  --      1.0839                 1.0118                 0.9353
 IR Inten    --      1.1201                 1.3330                 0.0411

                     70                     71                     72
                      A                      A                      A
 Frequencies --   1181.2032              1207.6503              1235.6096
 Red. masses --      1.4638                 1.1254                 2.4442
 Frc consts  --      1.2033                 0.9670                 2.1986
 IR Inten    --      1.9806                 1.2618                 1.3742

                     73                     74                     75
                      A                      A                      A
 Frequencies --   1238.8747              1250.9823              1264.7972
 Red. masses --      2.1673                 1.7366                 1.4475
 Frc consts  --      1.9599                 1.6012                 1.3643
 IR Inten    --      2.8468                 4.8605                 4.8683

                     76                     77                     78
                      A                      A                      A
 Frequencies --   1267.3998              1291.8213              1309.1194
 Red. masses --      1.4822                 2.8326                 2.3281
 Frc consts  --      1.4028                 2.7851                 2.3508
 IR Inten    --      4.4891                 4.8593                 2.4966

                     79                     80                     81
                      A                      A                      A
 Frequencies --   1316.7507              1319.6854              1323.7018
 Red. masses --      1.8380                 2.6247                 1.9128
 Frc consts  --      1.8776                 2.6932                 1.9747
 IR Inten    --      0.1319                 2.5657                 5.4204

                     82                     83                     84
                      A                      A                      A
 Frequencies --   1335.7670              1343.4793              1350.4586
 Red. masses --      2.0311                 1.3620                 1.6601
 Frc consts  --      2.1352                 1.4484                 1.7838
 IR Inten    --      0.6748                 0.1465                 1.8245

                     85                     86                     87
                      A                      A                      A
 Frequencies --   1351.3366              1355.4829              1374.7218
 Red. masses --      1.5740                 1.5727                 3.2970
 Frc consts  --      1.6935                 1.7025                 3.6711
 IR Inten    --      0.6702                 3.6212                 2.5384

                     88                     89                     90
                      A                      A                      A
 Frequencies --   1460.8665              1486.4943              1491.4820
 Red. masses --      3.3367                 1.1099                 1.2983
 Frc consts  --      4.1955                 1.4450                 1.7016
 IR Inten    --     17.6129                 0.3305                 9.9563

                     91                     92                     93
                      A                      A                      A
 Frequencies --   1492.4030              1493.8540              1499.5492
 Red. masses --      1.6724                 1.1994                 2.3005
 Frc consts  --      2.1947                 1.5770                 3.0479
 IR Inten    --      1.2179                 1.9408                46.3041

                     94                     95                     96
                      A                      A                      A
 Frequencies --   1513.0442              1515.5424              1531.4468
 Red. masses --      1.2323                 2.3366                 2.8097
 Frc consts  --      1.6622                 3.1620                 3.8826
 IR Inten    --     11.6394                15.8556                17.0881

                     97                     98                     99
                      A                      A                      A
 Frequencies --   1554.2288              1639.1502              1654.3819
 Red. masses --      3.1530                 6.2305                 6.5591
 Frc consts  --      4.4875                 9.8630                10.5771
 IR Inten    --      1.9957                 2.1022                 1.2565

                    100                    101                    102
                      A                      A                      A
 Frequencies --   1657.4139              1677.1443              1680.4272
 Red. masses --      6.9648                 6.0399                 7.0550
 Frc consts  --     11.2725                10.0097                11.7378
 IR Inten    --      0.2863                11.9353                 1.5908

                    103                    104                    105
                      A                      A                      A
 Frequencies --   1684.6418              3059.9143              3066.2229
 Red. masses --      7.0795                 1.0701                 1.0640
 Frc consts  --     11.8377                 5.9030                 5.8938
 IR Inten    --      6.1647                13.3340                26.7305

                    106                    107                    108
                      A                      A                      A
 Frequencies --   3077.9262              3078.7743              3124.2801
 Red. masses --      1.0623                 1.0639                 1.0953
 Frc consts  --      5.9296                 5.9416                 6.2991
 IR Inten    --     25.0747                 3.8680                31.2292

                    109                    110                    111
                      A                      A                      A
 Frequencies --   3126.3635              3136.0426              3137.9085
 Red. masses --      1.0996                 1.1029                 1.1046
 Frc consts  --      6.3321                 6.3910                 6.4084
 IR Inten    --     27.6384                 5.4116                28.4837

                    112                    113                    114
                      A                      A                      A
 Frequencies --   3185.7086              3188.6263              3198.2765
 Red. masses --      1.0899                 1.0882                 1.0868
 Frc consts  --      6.5169                 6.5187                 6.5502
 IR Inten    --      6.7660                 7.0616                11.8696

                    115                    116                    117
                      A                      A                      A
 Frequencies --   3199.5497              3201.6777              3203.5536
 Red. masses --      1.0861                 1.0877                 1.0878
 Frc consts  --      6.5510                 6.5692                 6.5775
 IR Inten    --      0.4779                 0.3525                 0.2821

                    118                    119                    120
                      A                      A                      A
 Frequencies --   3212.0409              3212.4956              3215.9905
 Red. masses --      1.0915                 1.0923                 1.0943
 Frc consts  --      6.6350                 6.6419                 6.6683
 IR Inten    --      2.8647                11.3255                 4.5907

                    121                    122                    123
                      A                      A                      A
 Frequencies --   3219.2103              3226.0474              3229.2870
 Red. masses --      1.0947                 1.0972                 1.0985
 Frc consts  --      6.6840                 6.7280                 6.7497
 IR Inten    --     17.4887                17.9553                12.6190

 - Thermochemistry -
 -------------------
 Temperature   298.150 Kelvin.  Pressure   1.00000 Atm.
 Atom     1 has atomic number  6 and mass  12.00000

 Molecular mass:   296.15650 amu.
 Principal axes and moments of inertia in atomic units:
                           1         2         3
     Eigenvalues --  3308.97963********************
           X            0.99998  -0.00593   0.00024
           Y            0.00593   0.99998  -0.00357
           Z           -0.00022   0.00357   0.99999
 This molecule is an asymmetric top.
 Rotational symmetry number  1.
 Warning -- assumption of classical behavior for rotation
           may cause significant error
 Rotational temperatures (Kelvin)      0.02618     0.00733     0.00600
 Rotational constants (GHZ):           0.54541     0.15265     0.12512
 Zero-point vibrational energy     955827.0 (Joules/Mol)
                                  228.44814 (Kcal/Mol)
 Warning -- explicit consideration of  25 degrees of freedom as
           vibrations may cause significant error
 Vibrational temperatures:     48.86    66.56    74.51   111.24   121.69
          (Kelvin)            177.75   180.66   246.89   265.93   308.13
                              383.04   389.89   444.30   491.04   509.84
                              536.07   576.79   602.81   662.71   694.08
                              710.92   744.41   773.41   803.32   839.09
                              897.38   907.43   916.53   941.18   957.30
                             1024.00  1041.09  1057.92  1100.94  1122.81
                             1135.24  1148.18  1179.58  1224.06  1234.86
                             1249.64  1260.92  1277.80  1299.28  1337.93
                             1343.66  1372.34  1383.57  1390.53  1402.24
                             1414.60  1434.12  1437.05  1437.28  1460.72
                             1469.99  1481.69  1510.58  1520.14  1524.33
                             1548.69  1559.32  1581.74  1602.63  1629.97
                             1639.63  1670.90  1690.56  1694.28  1699.49
                             1737.54  1777.77  1782.46  1799.88  1819.76
                             1823.51  1858.64  1883.53  1894.51  1898.73
                             1904.51  1921.87  1932.97  1943.01  1944.27
                             1950.24  1977.92  2101.86  2138.73  2145.91
                             2147.24  2149.32  2157.52  2176.93  2180.53
                             2203.41  2236.19  2358.37  2380.29  2384.65
                             2413.04  2417.76  2423.82  4402.53  4411.61
                             4428.45  4429.67  4495.14  4498.14  4512.07
                             4514.75  4583.52  4587.72  4601.61  4603.44
                             4606.50  4609.20  4621.41  4622.06  4627.09
                             4631.73  4641.56  4646.22

 Zero-point correction=                           0.364055 (Hartree/Particle)
 Thermal correction to Energy=                    0.381410
 Thermal correction to Enthalpy=                  0.382355
 Thermal correction to Gibbs Free Energy=         0.318158
 Sum of electronic and zero-point Energies=           -888.090924
 Sum of electronic and thermal Energies=              -888.073569
 Sum of electronic and thermal Enthalpies=            -888.072625
 Sum of electronic and thermal Free Energies=         -888.136821

                     E (Thermal)             CV                S
                      KCal/Mol        Cal/Mol-Kelvin    Cal/Mol-Kelvin
 Total                  239.339             72.230            135.113
 Electronic               0.000              0.000              0.000
 Translational            0.889              2.981             42.954
 Rotational               0.889              2.981             34.689
 Vibrational            237.561             66.268             57.470
 Vibration     1          0.594              1.983              5.584
 Vibration     2          0.595              1.979              4.971
 Vibration     3          0.596              1.977              4.748
 Vibration     4          0.599              1.964              3.958
 Vibration     5          0.601              1.960              3.782
 Vibration     6          0.610              1.929              3.044
 Vibration     7          0.611              1.928              3.013
 Vibration     8          0.626              1.877              2.418
 Vibration     9          0.631              1.861              2.279
 Vibration    10          0.644              1.819              2.008
 Vibration    11          0.672              1.735              1.621
 Vibration    12          0.675              1.727              1.590
 Vibration    13          0.698              1.657              1.369
 Vibration    14          0.721              1.593              1.206
 Vibration    15          0.730              1.566              1.147
 Vibration    16          0.744              1.528              1.069
 Vibration    17          0.767              1.468              0.959
 Vibration    18          0.782              1.429              0.895
 Vibration    19          0.818              1.337              0.764
 Vibration    20          0.839              1.289              0.704
 Vibration    21          0.850              1.263              0.673
 Vibration    22          0.872              1.211              0.616
 Vibration    23          0.893              1.167              0.571
 Vibration    24          0.914              1.121              0.527
 Vibration    25          0.940              1.068              0.479

 Optimization completed.
    -- Stationary point found.
 Normal termination of Gaussian 16 at Tue Nov 14 20:37:34 2023.
