 Gaussian 16, Revision C.01,
 Gaussian 16:  ES64L-G16RevC.01  3-Jul-2019

 -----------------------------------------
 # opt freq=noraman m062x def2tzvp pop=nbo
 -----------------------------------------

 ----------
 Structure1
 ----------
 Symbolic Z-matrix:
 Charge =  0 Multiplicity = 1

 SCF Done:  E(RM062X) =  -849.115008561     A.U. after   13 cycles
 SCF Done:  E(RM062X) =  -849.118846655     A.U. after   12 cycles
 SCF Done:  E(RM062X) =  -849.119065636     A.U. after   12 cycles
 SCF Done:  E(RM062X) =  -849.119104740     A.U. after   10 cycles
 SCF Done:  E(RM062X) =  -849.119111625     A.U. after    9 cycles
 SCF Done:  E(RM062X) =  -849.119114312     A.U. after    7 cycles
 SCF Done:  E(RM062X) =  -849.119114603     A.U. after    7 cycles
 Optimization completed.
    -- Stationary point found.
 Normal termination of Gaussian 16 at Tue Nov 28 08:00:49 2023.

 --------------------------------------------------------------------
 #N Geom=AllCheck Guess=TCheck SCRF=Check GenChk RM062X/def2TZVP Freq
 --------------------------------------------------------------------

 Structure from the checkpoint file:  "ph_fluorene_cyclobutyl_4_1_m062x.chk"
 ----------
 Structure1
 ----------
 Charge =  0 Multiplicity = 1

                         Standard orientation:
 ---------------------------------------------------------------------
 Center     Atomic      Atomic             Coordinates (Angstroms)
 Number     Number       Type             X           Y           Z
 ---------------------------------------------------------------------
      1          6           0       -5.104151    1.128136   -0.696297
      2          6           0       -3.746878    0.845674   -0.713568
      3          6           0       -3.237205   -0.259208   -0.030399
      4          6           0       -4.127048   -1.073488    0.671279
      5          6           0       -5.484418   -0.791654    0.689930
      6          6           0       -5.978687    0.310451    0.005978
      7          6           0       -1.787155   -0.558655   -0.049124
      8          6           0       -0.847726    0.475079    0.024226
      9          1           0       -3.745524   -1.920671    1.227598
     10          1           0       -6.157423   -1.430431    1.247326
     11          1           0       -7.038095    0.530522    0.020116
     12          1           0       -1.187572    1.500951    0.120893
     13          6           0       -1.336567   -1.879003   -0.141361
     14          6           0        0.017244   -2.182364   -0.162339
     15          1           0       -2.063973   -2.676851   -0.223634
     16          1           0        0.342745   -3.212159   -0.243842
     17          6           0        0.500256    0.178709    0.006621
     18          6           0        0.936508   -1.147148   -0.087172
     19          6           0        2.403111   -1.149474   -0.081709
     20          6           0        2.845992    0.176189    0.020241
     21          6           0        4.201143    0.454661    0.046904
     22          6           0        5.109889   -0.597349   -0.028850
     23          6           0        4.666924   -1.911632   -0.130036
     24          6           0        3.307797   -2.197877   -0.157114
     25          1           0        4.560811    1.473680    0.125479
     26          1           0        6.172030   -0.390457   -0.008781
     27          1           0        5.387833   -2.716712   -0.188132
     28          1           0        2.964117   -3.221975   -0.236044
     29          6           0        1.670081    1.121147    0.087900
     30          6           0        1.721746    2.157414    1.251549
     31          6           0        2.211363    3.231742    0.260340
     32          6           0        1.734207    2.329276   -0.894770
     33          1           0        0.718166    2.369607    1.620176
     34          1           0        2.366875    1.900926    2.090206
     35          1           0        1.759321    4.218637    0.336821
     36          1           0        3.294058    3.345251    0.275545
     37          1           0        0.734496    2.598666   -1.235779
     38          1           0        2.388717    2.209187   -1.756515
     39          1           0       -5.481225    1.984662   -1.240231
     40          1           0       -3.073901    1.473406   -1.284567
 ---------------------------------------------------------------------

 SCF Done:  E(RM062X) =  -849.119114603     A.U. after    1 cycles

 The electronic state is 1-A.
 Alpha  occ. eigenvalues --  -10.55604 -10.55221 -10.55170 -10.54508 -10.54455
 Alpha  occ. eigenvalues --  -10.54370 -10.54301 -10.54262 -10.54220 -10.54199
 Alpha  occ. eigenvalues --  -10.54179 -10.54172 -10.54166 -10.54115 -10.54106
 Alpha  occ. eigenvalues --  -10.54091 -10.54055 -10.54040 -10.53959 -10.53956
 Alpha  occ. eigenvalues --  -10.53926 -10.53589  -1.00580  -0.97374  -0.95014
 Alpha  occ. eigenvalues --   -0.94903  -0.89780  -0.86180  -0.84787  -0.84646
 Alpha  occ. eigenvalues --   -0.83987  -0.80014  -0.76287  -0.75623  -0.72582
 Alpha  occ. eigenvalues --   -0.69903  -0.68868  -0.67512  -0.66217  -0.65180
 Alpha  occ. eigenvalues --   -0.62556  -0.60088  -0.58657  -0.56222  -0.55830
 Alpha  occ. eigenvalues --   -0.54265  -0.53684  -0.52256  -0.51591  -0.51105
 Alpha  occ. eigenvalues --   -0.50487  -0.49223  -0.48897  -0.48728  -0.48363
 Alpha  occ. eigenvalues --   -0.46891  -0.46404  -0.44613  -0.43545  -0.43239
 Alpha  occ. eigenvalues --   -0.42551  -0.42160  -0.41291  -0.40306  -0.39904
 Alpha  occ. eigenvalues --   -0.39327  -0.37461  -0.36948  -0.35914  -0.34975
 Alpha  occ. eigenvalues --   -0.31060  -0.30986  -0.30553  -0.29709  -0.25863
 Alpha virt. eigenvalues --   -0.01974   0.00580   0.02035   0.02695   0.03450
 Alpha virt. eigenvalues --    0.06426   0.07434   0.07823   0.08656   0.08896
 Alpha virt. eigenvalues --    0.09568   0.09669   0.10804   0.11038   0.11739

 Mulliken charges:
               1
     1  C   -0.153325
     2  C   -0.216173
     3  C    0.105747
     4  C   -0.220213
     5  C   -0.152823
     6  C   -0.148264
     7  C    0.105402
     8  C   -0.291271
     9  H    0.167852
    10  H    0.143165
    11  H    0.142203
    12  H    0.195804
    13  C   -0.194463
    14  C   -0.249244
    15  H    0.163460
    16  H    0.142232
    17  C    0.105522
    18  C    0.113651
    19  C    0.037235
    20  C    0.039501
    21  C   -0.220203
    22  C   -0.153701
    23  C   -0.141649
    24  C   -0.239865
    25  H    0.158802
    26  H    0.140901
    27  H    0.141011
    28  H    0.138297
    29  C   -0.050313
    30  C   -0.236295
    31  C   -0.299594
    32  C   -0.235656
    33  H    0.145150
    34  H    0.143522
    35  H    0.132688
    36  H    0.145499
    37  H    0.141479
    38  H    0.143613
    39  H    0.142909
    40  H    0.167407
 Sum of Mulliken charges =  -0.00000

 Dipole moment (field-independent basis, Debye):
    X=              0.0647    Y=              0.6243    Z=              0.0736  Tot=              0.6319
 Quadrupole moment (field-independent basis, Debye-Ang):
   XX=           -116.9671   YY=           -117.7168   ZZ=           -134.6581
   XY=              0.3291   XZ=             -0.7072   YZ=             -2.4263

  Exact polarizability:     383.465     -10.898     244.782      -3.578      -8.219     146.350
 Approx polarizability:     415.105      -8.935     339.560      -5.111     -14.751     213.397

 Summary of Natural Population Analysis:

                                       Natural Population
                Natural  -----------------------------------------------
    Atom  No    Charge         Core      Valence    Rydberg      Total
 -----------------------------------------------------------------------
      C    1   -0.20426      1.99923     4.18665    0.01838     6.20426
      C    2   -0.19857      1.99914     4.18162    0.01780     6.19857
      C    3   -0.04857      1.99910     4.02935    0.02013     6.04857
      C    4   -0.19772      1.99914     4.18060    0.01797     6.19772
      C    5   -0.20403      1.99923     4.18640    0.01841     6.20403
      C    6   -0.21449      1.99922     4.19686    0.01841     6.21449
      C    7   -0.04429      1.99912     4.02588    0.01929     6.04429
      C    8   -0.19666      1.99902     4.18147    0.01616     6.19666
      H    9    0.21435      0.00000     0.78443    0.00122     0.78565
      H   10    0.21337      0.00000     0.78561    0.00102     0.78663
      H   11    0.21337      0.00000     0.78563    0.00100     0.78663
      H   12    0.21076      0.00000     0.78691    0.00233     0.78924
      C   13   -0.19296      1.99917     4.17698    0.01681     6.19296
      C   14   -0.18519      1.99913     4.16909    0.01696     6.18519
      H   15    0.21470      0.00000     0.78419    0.00111     0.78530
      H   16    0.21385      0.00000     0.78494    0.00121     0.78615
      C   17    0.02104      1.99909     3.96150    0.01837     5.97896
      C   18   -0.04759      1.99906     4.03060    0.01794     6.04759
      C   19   -0.05129      1.99906     4.03362    0.01861     6.05129
      C   20    0.02115      1.99909     3.96074    0.01901     5.97885
      C   21   -0.21507      1.99910     4.19823    0.01775     6.21507
      C   22   -0.20488      1.99925     4.18771    0.01793     6.20488
      C   23   -0.20995      1.99924     4.19271    0.01799     6.20995
      C   24   -0.19097      1.99913     4.17465    0.01719     6.19097
      H   25    0.20956      0.00000     0.78845    0.00199     0.79044
      H   26    0.21241      0.00000     0.78660    0.00099     0.78759
      H   27    0.21301      0.00000     0.78600    0.00099     0.78699
      H   28    0.21268      0.00000     0.78606    0.00126     0.78732
      C   29   -0.09546      1.99928     4.07818    0.01801     6.09546
      C   30   -0.37062      1.99939     4.35854    0.01269     6.37062
      C   31   -0.40224      1.99947     4.39183    0.01094     6.40224
      C   32   -0.37057      1.99939     4.35850    0.01268     6.37057
      H   33    0.20894      0.00000     0.78990    0.00116     0.79106
      H   34    0.21345      0.00000     0.78532    0.00123     0.78655
      H   35    0.20566      0.00000     0.79322    0.00113     0.79434
      H   36    0.19987      0.00000     0.79891    0.00122     0.80013
      H   37    0.20748      0.00000     0.79134    0.00118     0.79252
      H   38    0.21338      0.00000     0.78538    0.00123     0.78662
      H   39    0.21316      0.00000     0.78581    0.00103     0.78684
      H   40    0.21318      0.00000     0.78569    0.00113     0.78682
 =======================================================================
   * Total *    0.00000     43.98205   105.61610    0.40185   150.00000

                      1                      2                      3
                      A                      A                      A
 Frequencies --     35.4134                48.2777                70.1090
 Red. masses --      4.7243                 3.9083                 4.5700
 Frc consts  --      0.0035                 0.0054                 0.0132
 IR Inten    --      0.0568                 0.1973                 0.1164

                      4                      5                      6
                      A                      A                      A
 Frequencies --     79.4091               123.4356               129.8616
 Red. masses --      3.8916                 4.6085                 3.1635
 Frc consts  --      0.0145                 0.0414                 0.0314
 IR Inten    --      0.3661                 0.3579                 0.0252

                      7                      8                      9
                      A                      A                      A
 Frequencies --    135.9786               178.5894               188.6128
 Red. masses --      2.8379                 3.6994                 3.7592
 Frc consts  --      0.0309                 0.0695                 0.0788
 IR Inten    --      0.1384                 0.6860                 0.1947

                     10                     11                     12
                      A                      A                      A
 Frequencies --    221.5389               262.9489               280.0123
 Red. masses --      2.6385                 3.9033                 4.1288
 Frc consts  --      0.0763                 0.1590                 0.1907
 IR Inten    --      0.1529                 0.0907                 0.3031

                     13                     14                     15
                      A                      A                      A
 Frequencies --    343.1129               357.8823               394.5972
 Red. masses --      4.2078                 3.8091                 4.2870
 Frc consts  --      0.2919                 0.2874                 0.3933
 IR Inten    --      0.0828                 0.5650                 1.2982

                     16                     17                     18
                      A                      A                      A
 Frequencies --    405.8702               418.4367               460.0423
 Red. masses --      4.3358                 2.9518                 3.8414
 Frc consts  --      0.4208                 0.3045                 0.4790
 IR Inten    --      1.2770                 0.2745                 7.2264

                     19                     20                     21
                      A                      A                      A
 Frequencies --    481.7646               486.4498               516.8369
 Red. masses --      4.4269                 3.5431                 3.8680
 Frc consts  --      0.6054                 0.4940                 0.6087
 IR Inten    --      1.4413                 3.3568                 2.2451

                     22                     23                     24
                      A                      A                      A
 Frequencies --    556.1780               585.2192               594.8519
 Red. masses --      4.0778                 3.5231                 3.4395
 Frc consts  --      0.7432                 0.7109                 0.7171
 IR Inten    --      2.7542                 3.8314                 0.9184

                     25                     26                     27
                      A                      A                      A
 Frequencies --    630.2676               633.2471               654.6030
 Red. masses --      6.2306                 6.4940                 3.6299
 Frc consts  --      1.4583                 1.5343                 0.9164
 IR Inten    --      0.0653                 0.3727                 1.5480

                     28                     29                     30
                      A                      A                      A
 Frequencies --    679.4813               714.0809               722.8055
 Red. masses --      2.5703                 2.8679                 1.7136
 Frc consts  --      0.6992                 0.8616                 0.5275
 IR Inten    --      8.0578                 1.5867                37.5426

                     31                     32                     33
                      A                      A                      A
 Frequencies --    734.6857               760.2048               778.0125
 Red. masses --      5.0339                 1.8914                 1.9247
 Frc consts  --      1.6009                 0.6440                 0.6864
 IR Inten    --      3.6656                30.2141                 1.3638

                     34                     35                     36
                      A                      A                      A
 Frequencies --    782.0833               792.7281               803.6964
 Red. masses --      1.5992                 1.7048                 4.8383
 Frc consts  --      0.5763                 0.6312                 1.8413
 IR Inten    --     56.6067                23.0712                 0.5104

                     37                     38                     39
                      A                      A                      A
 Frequencies --    825.1007               843.4670               868.2068
 Red. masses --      2.2225                 2.2697                 1.5319
 Frc consts  --      0.8915                 0.9514                 0.6804
 IR Inten    --      1.0585                 0.5887                14.2431

                     40                     41                     42
                      A                      A                      A
 Frequencies --    875.2586               887.4500               900.1247
 Red. masses --      1.2486                 2.6915                 1.5620
 Frc consts  --      0.5636                 1.2489                 0.7456
 IR Inten    --      0.1585                 0.3820                 0.1873

                     43                     44                     45
                      A                      A                      A
 Frequencies --    930.3562               955.4126               960.4599
 Red. masses --      1.4639                 1.5003                 1.4240
 Frc consts  --      0.7466                 0.8069                 0.7740
 IR Inten    --      6.3102                 1.1690                 0.0942

                     46                     47                     48
                      A                      A                      A
 Frequencies --    966.5889               974.6099               983.0381
 Red. masses --      2.1103                 2.6109                 1.3759
 Frc consts  --      1.1617                 1.4612                 0.7834
 IR Inten    --      1.4937                 1.8736                 0.3215

                     49                     50                     51
                      A                      A                      A
 Frequencies --    997.9785               998.1837              1014.3716
 Red. masses --      1.3739                 1.2907                 1.2944
 Frc consts  --      0.8062                 0.7577                 0.7847
 IR Inten    --      0.2456                 0.0194                 0.1047

                     52                     53                     54
                      A                      A                      A
 Frequencies --   1021.1840              1029.0849              1041.8835
 Red. masses --      5.8168                 6.6183                 3.4744
 Frc consts  --      3.5739                 4.1295                 2.2221
 IR Inten    --      1.1137                 2.1971                 0.2322

                     55                     56                     57
                      A                      A                      A
 Frequencies --   1049.9057              1057.6876              1060.1689
 Red. masses --      5.0017                 3.0345                 2.1293
 Frc consts  --      3.2484                 2.0001                 1.4101
 IR Inten    --      2.3441                 0.1883                 7.1001

                     58                     59                     60
                      A                      A                      A
 Frequencies --   1071.3340              1075.9025              1107.7896
 Red. masses --      1.3058                 1.7843                 1.9878
 Frc consts  --      0.8830                 1.2169                 1.4372
 IR Inten    --      0.0428                 2.5332                 0.8140

                     61                     62                     63
                      A                      A                      A
 Frequencies --   1113.6521              1144.2963              1161.8399
 Red. masses --      1.5315                 1.5732                 1.4205
 Frc consts  --      1.1191                 1.2137                 1.1297
 IR Inten    --      4.6747                 2.2881                 1.8328

                     64                     65                     66
                      A                      A                      A
 Frequencies --   1177.2133              1177.5882              1208.0025
 Red. masses --      1.1491                 1.1587                 1.1281
 Frc consts  --      0.9383                 0.9467                 0.9699
 IR Inten    --      0.3255                 2.5492                 1.3503

                     67                     68                     69
                      A                      A                      A
 Frequencies --   1215.1021              1217.8181              1236.0254
 Red. masses --      1.8225                 1.3098                 2.7363
 Frc consts  --      1.5854                 1.1445                 2.4630
 IR Inten    --      1.0580                 1.1158                 0.8615

                     70                     71                     72
                      A                      A                      A
 Frequencies --   1250.8950              1253.1279              1261.3718
 Red. masses --      1.8888                 1.2457                 1.8779
 Frc consts  --      1.7413                 1.1526                 1.7604
 IR Inten    --      2.2583                 0.0709                13.3851

                     73                     74                     75
                      A                      A                      A
 Frequencies --   1274.4418              1282.2077              1299.0159
 Red. masses --      1.4441                 1.8097                 3.2056
 Frc consts  --      1.3820                 1.7530                 3.1870
 IR Inten    --      1.9990                 0.0439                 1.4815

                     76                     77                     78
                      A                      A                      A
 Frequencies --   1317.2120              1320.8006              1328.2567
 Red. masses --      3.0308                 2.6494                 2.1739
 Frc consts  --      3.0983                 2.7232                 2.2597
 IR Inten    --      1.2776                 2.7770                 8.3914

                     79                     80                     81
                      A                      A                      A
 Frequencies --   1344.7287              1354.5732              1374.9302
 Red. masses --      2.8401                 1.6119                 3.3157
 Frc consts  --      3.0259                 1.7426                 3.6931
 IR Inten    --      1.6458                 2.3328                 3.3127

                     82                     83                     84
                      A                      A                      A
 Frequencies --   1463.3954              1473.9191              1483.5159
 Red. masses --      3.3552                 1.0873                 1.1344
 Frc consts  --      4.2334                 1.3918                 1.4710
 IR Inten    --     18.7849                 5.4040                 1.1071

                     85                     86                     87
                      A                      A                      A
 Frequencies --   1492.3639              1498.6593              1511.1284
 Red. masses --      2.3629                 2.4242                 1.2132
 Frc consts  --      3.1006                 3.2080                 1.6323
 IR Inten    --      3.3652                42.9349                10.5823

                     88                     89                     90
                      A                      A                      A
 Frequencies --   1515.7688              1530.9930              1553.8287
 Red. masses --      2.6580                 2.7993                 3.1147
 Frc consts  --      3.5981                 3.8658                 4.4307
 IR Inten    --     14.4093                16.4319                 2.0368

                     91                     92                     93
                      A                      A                      A
 Frequencies --   1639.4315              1653.3497              1657.1519
 Red. masses --      6.1786                 6.4830                 6.9481
 Frc consts  --      9.7842                10.4414                11.2420
 IR Inten    --      1.7052                 1.2287                 0.3381

                     94                     95                     96
                      A                      A                      A
 Frequencies --   1676.6916              1681.4854              1686.0782
 Red. masses --      6.0183                 7.0175                 7.1483
 Frc consts  --      9.9685                11.6902                11.9732
 IR Inten    --     12.5471                 3.1878                 3.0514

                     97                     98                     99
                      A                      A                      A
 Frequencies --   3088.8414              3092.1969              3104.0004
 Red. masses --      1.0572                 1.0591                 1.0602
 Frc consts  --      5.9431                 5.9668                 6.0187
 IR Inten    --     36.1461                 4.2411                36.9958

                    100                    101                    102
                      A                      A                      A
 Frequencies --   3140.4003              3149.4623              3161.1227
 Red. masses --      1.1092                 1.1096                 1.1084
 Frc consts  --      6.4454                 6.4844                 6.5257
 IR Inten    --      7.4946                 6.8109                32.3261

                    103                    104                    105
                      A                      A                      A
 Frequencies --   3185.1709              3197.9560              3198.7172
 Red. masses --      1.0900                 1.0862                 1.0865
 Frc consts  --      6.5156                 6.5450                 6.5500
 IR Inten    --      6.8393                 6.3871                 8.3194

                    106                    107                    108
                      A                      A                      A
 Frequencies --   3199.7788              3203.2890              3204.0390
 Red. masses --      1.0862                 1.0890                 1.0879
 Frc consts  --      6.5523                 6.5839                 6.5799
 IR Inten    --      1.0930                 0.1575                 0.1855

                    109                    110                    111
                      A                      A                      A
 Frequencies --   3212.1054              3214.1744              3216.3616
 Red. masses --      1.0914                 1.0929                 1.0942
 Frc consts  --      6.6347                 6.6523                 6.6695
 IR Inten    --      4.8401                11.8032                 4.8496

                    112                    113                    114
                      A                      A                      A
 Frequencies --   3219.7334              3226.7293              3229.2673
 Red. masses --      1.0947                 1.0974                 1.0986
 Frc consts  --      6.6860                 6.7318                 6.7498
 IR Inten    --     17.4793                17.9266                12.2713

 - Thermochemistry -
 -------------------
 Temperature   298.150 Kelvin.  Pressure   1.00000 Atm.
 Atom     1 has atomic number  6 and mass  12.00000

 Molecular mass:   282.14085 amu.
 Principal axes and moments of inertia in atomic units:
                           1         2         3
     Eigenvalues --  2606.55496********************
           X            0.99999   0.00449  -0.00005
           Y           -0.00449   0.99998  -0.00403
           Z            0.00004   0.00403   0.99999
 This molecule is an asymmetric top.
 Rotational symmetry number  1.
 Warning -- assumption of classical behavior for rotation
           may cause significant error
 Rotational temperatures (Kelvin)      0.03323     0.00741     0.00628
 Rotational constants (GHZ):           0.69239     0.15431     0.13090
 Zero-point vibrational energy     876929.0 (Joules/Mol)
                                  209.59106 (Kcal/Mol)
 Warning -- explicit consideration of  24 degrees of freedom as
           vibrations may cause significant error
 Vibrational temperatures:     50.95    69.46   100.87   114.25   177.60
          (Kelvin)            186.84   195.64   256.95   271.37   318.75
                              378.32   402.88   493.66   514.91   567.74
                              583.96   602.04   661.90   693.15   699.89
                              743.61   800.22   842.00   855.86   906.81
                              911.10   941.83   977.62  1027.40  1039.96
                             1057.05  1093.77  1119.39  1125.24  1140.56
                             1156.34  1187.14  1213.56  1249.16  1259.30
                             1276.84  1295.08  1338.58  1374.63  1381.89
                             1390.71  1402.25  1414.37  1435.87  1436.16
                             1459.45  1469.26  1480.62  1499.04  1510.58
                             1521.78  1525.35  1541.41  1547.98  1593.86
                             1602.30  1646.39  1671.63  1693.75  1694.29
                             1738.05  1748.26  1752.17  1778.36  1799.76
                             1802.97  1814.83  1833.64  1844.81  1868.99
                             1895.17  1900.34  1911.07  1934.76  1948.93
                             1978.22  2105.50  2120.64  2134.45  2147.18
                             2156.24  2174.18  2180.85  2202.76  2235.61
                             2358.78  2378.80  2384.27  2412.39  2419.28
                             2425.89  4444.15  4448.98  4465.96  4518.34
                             4531.37  4548.15  4582.75  4601.15  4602.24
                             4603.77  4608.82  4609.90  4621.50  4624.48
                             4627.63  4632.48  4642.54  4646.20

 Zero-point correction=                           0.334005 (Hartree/Particle)
 Thermal correction to Energy=                    0.350476
 Thermal correction to Enthalpy=                  0.351420
 Thermal correction to Gibbs Free Energy=         0.289425
 Sum of electronic and zero-point Energies=           -848.785110
 Sum of electronic and thermal Energies=              -848.768639
 Sum of electronic and thermal Enthalpies=            -848.767695
 Sum of electronic and thermal Free Energies=         -848.829689

                     E (Thermal)             CV                S
                      KCal/Mol        Cal/Mol-Kelvin    Cal/Mol-Kelvin
 Total                  219.927             68.394            130.479
 Electronic               0.000              0.000              0.000
 Translational            0.889              2.981             42.810
 Rotational               0.889              2.981             34.396
 Vibrational            218.149             62.433             53.273
 Vibration     1          0.594              1.982              5.500
 Vibration     2          0.595              1.978              4.887
 Vibration     3          0.598              1.968              4.150
 Vibration     4          0.600              1.963              3.905
 Vibration     5          0.610              1.929              3.046
 Vibration     6          0.612              1.923              2.948
 Vibration     7          0.614              1.917              2.860
 Vibration     8          0.629              1.869              2.343
 Vibration     9          0.633              1.856              2.241
 Vibration    10          0.648              1.808              1.946
 Vibration    11          0.670              1.741              1.642
 Vibration    12          0.680              1.711              1.534
 Vibration    13          0.722              1.589              1.198
 Vibration    14          0.733              1.559              1.131
 Vibration    15          0.762              1.482              0.983
 Vibration    16          0.771              1.457              0.941
 Vibration    17          0.781              1.430              0.897
 Vibration    18          0.818              1.339              0.766
 Vibration    19          0.838              1.290              0.705
 Vibration    20          0.842              1.280              0.693
 Vibration    21          0.872              1.213              0.617
 Vibration    22          0.912              1.126              0.532
 Vibration    23          0.942              1.063              0.476
 Vibration    24          0.953              1.043              0.459

 Optimization completed.
    -- Stationary point found.
 Normal termination of Gaussian 16 at Tue Nov 28 11:24:42 2023.
