 Gaussian 16, Revision C.01,
 Gaussian 16:  ES64L-G16RevC.01  3-Jul-2019

 -----------------------------------------
 # opt freq=noraman m062x def2tzvp pop=nbo
 -----------------------------------------

 ------------
 Structure697
 ------------
 Symbolic Z-matrix:
 Charge =  0 Multiplicity = 1

 SCF Done:  E(RM062X) =  -927.766932598     A.U. after   14 cycles
 SCF Done:  E(RM062X) =  -927.770291432     A.U. after   12 cycles
 SCF Done:  E(RM062X) =  -927.770596575     A.U. after   12 cycles
 SCF Done:  E(RM062X) =  -927.770618346     A.U. after   11 cycles
 SCF Done:  E(RM062X) =  -927.770666864     A.U. after   10 cycles
 SCF Done:  E(RM062X) =  -927.770667310     A.U. after    7 cycles
 SCF Done:  E(RM062X) =  -927.770667368     A.U. after    7 cycles
 Optimization completed.
    -- Stationary point found.
 Normal termination of Gaussian 16 at Fri Nov  3 17:28:36 2023.

 --------------------------------------------------------------------
 #N Geom=AllCheck Guess=TCheck SCRF=Check GenChk RM062X/def2TZVP Freq
 --------------------------------------------------------------------

 Structure from the checkpoint file:  "ph_fluorene_cy_idp_1_1_m062x.chk"
 ------------
 Structure697
 ------------
 Charge =  0 Multiplicity = 1

                         Standard orientation:
 ---------------------------------------------------------------------
 Center     Atomic      Atomic             Coordinates (Angstroms)
 Number     Number       Type             X           Y           Z
 ---------------------------------------------------------------------
      1          6           0       -3.258518   -0.573383   -0.039693
      2          6           0       -4.152401   -1.370695    0.676233
      3          6           0       -5.509087   -1.085155    0.685635
      4          6           0       -5.998919    0.003832   -0.022137
      5          6           0       -5.120523    0.804475   -0.739107
      6          6           0       -3.763939    0.518288   -0.747123
      7          1           0       -6.185047   -1.710616    1.254473
      8          1           0       -5.494041    1.650409   -1.301767
      9          1           0       -3.774415   -2.207173    1.250910
     10          1           0       -3.088189    1.132158   -1.330328
     11          1           0       -7.057769    0.226865   -0.015169
     12          6           0       -0.007203   -2.491082   -0.127434
     13          6           0       -1.361850   -2.197660   -0.113986
     14          6           0       -1.809110   -0.877362   -0.048863
     15          6           0       -0.872753    0.161815    0.005440
     16          1           0        0.327759   -3.519334   -0.187640
     17          1           0       -2.086768   -2.999168   -0.180743
     18          1           0       -1.239870    1.174974    0.082135
     19          6           0        0.908049   -1.451729   -0.073967
     20          6           0        0.484122   -0.115694   -0.006799
     21          6           0        2.836552   -0.170954   -0.000697
     22          6           0        2.371058   -1.485099   -0.071829
     23          6           0        3.255587   -2.553542   -0.125655
     24          6           0        4.618713   -2.291407   -0.107542
     25          6           0        5.086042   -0.982447   -0.036665
     26          6           0        4.196144    0.085684    0.017102
     27          1           0        2.893141   -3.572694   -0.180718
     28          1           0        5.325161   -3.110280   -0.148707
     29          1           0        6.151881   -0.794854   -0.023249
     30          1           0        4.571248    1.101368    0.072133
     31          6           0        0.767169    2.797349    1.414800
     32          6           0        1.760264    1.640307    1.356230
     33          6           0        1.688109    0.821839    0.048793
     34          6           0        1.767346    1.774122   -1.164085
     35          6           0        0.771633    2.929121   -1.105477
     36          6           0        0.908902    3.710463    0.199172
     37          1           0        0.934710    3.365822    2.331950
     38          1           0       -0.253460    2.413562    1.477148
     39          1           0        1.627437    0.967084    2.205830
     40          1           0        2.773436    2.049547    1.429938
     41          1           0        2.779643    2.191497   -1.187177
     42          1           0        1.642208    1.194441   -2.081184
     43          1           0        0.939614    3.590037   -1.958367
     44          1           0       -0.248274    2.550829   -1.208904
     45          1           0        0.172477    4.515187    0.240402
     46          1           0        1.896795    4.183842    0.224965
 ---------------------------------------------------------------------

 SCF Done:  E(RM062X) =  -927.770667368     A.U. after    1 cycles

 The electronic state is 1-A.
 Alpha  occ. eigenvalues --  -10.55585 -10.55168 -10.55061 -10.54559 -10.54433
 Alpha  occ. eigenvalues --  -10.54324 -10.54206 -10.54197 -10.54184 -10.54132
 Alpha  occ. eigenvalues --  -10.54123 -10.54122 -10.54103 -10.54072 -10.54055
 Alpha  occ. eigenvalues --  -10.54041 -10.54023 -10.54002 -10.53920 -10.53397
 Alpha  occ. eigenvalues --  -10.53360 -10.52927 -10.52879 -10.52814  -1.00285
 Alpha  occ. eigenvalues --   -0.97298  -0.94969  -0.93833  -0.89978  -0.87266
 Alpha  occ. eigenvalues --   -0.84904  -0.84705  -0.84192  -0.83902  -0.81400
 Alpha  occ. eigenvalues --   -0.79933  -0.73535  -0.71779  -0.69969  -0.69529
 Alpha  occ. eigenvalues --   -0.68291  -0.66312  -0.65919  -0.65493  -0.62494
 Alpha  occ. eigenvalues --   -0.59455  -0.58789  -0.56076  -0.55303  -0.54292
 Alpha  occ. eigenvalues --   -0.53185  -0.52088  -0.51853  -0.51425  -0.51103
 Alpha  occ. eigenvalues --   -0.50566  -0.49578  -0.48838  -0.48449  -0.48375
 Alpha  occ. eigenvalues --   -0.47890  -0.45653  -0.44858  -0.44694  -0.44302
 Alpha  occ. eigenvalues --   -0.43299  -0.42663  -0.42506  -0.41419  -0.40751
 Alpha  occ. eigenvalues --   -0.40410  -0.39792  -0.39489  -0.39142  -0.36502
 Alpha  occ. eigenvalues --   -0.36233  -0.35399  -0.34908  -0.31044  -0.30924
 Alpha  occ. eigenvalues --   -0.30599  -0.29930  -0.25803
 Alpha virt. eigenvalues --   -0.01897   0.01079   0.02039   0.02831   0.03302
 Alpha virt. eigenvalues --    0.06021   0.07055   0.07487   0.08539   0.08947
 Alpha virt. eigenvalues --    0.09332   0.09726   0.09996   0.10747   0.11186

 Mulliken charges:
               1
     1  C    0.099851
     2  C   -0.220034
     3  C   -0.152638
     4  C   -0.148492
     5  C   -0.155648
     6  C   -0.219768
     7  H    0.143104
     8  H    0.142745
     9  H    0.168047
    10  H    0.176862
    11  H    0.142035
    12  C   -0.246647
    13  C   -0.193419
    14  C    0.072358
    15  C   -0.225181
    16  H    0.141263
    17  H    0.161885
    18  H    0.210983
    19  C    0.142299
    20  C   -0.189987
    21  C    0.032126
    22  C    0.120826
    23  C   -0.249371
    24  C   -0.139489
    25  C   -0.163450
    26  C   -0.210501
    27  H    0.139338
    28  H    0.140826
    29  H    0.140438
    30  H    0.159177
    31  C   -0.337646
    32  C   -0.295788
    33  C    0.131655
    34  C   -0.295548
    35  C   -0.331524
    36  C   -0.249698
    37  H    0.145895
    38  H    0.168601
    39  H    0.166556
    40  H    0.159808
    41  H    0.160251
    42  H    0.166513
    43  H    0.145926
    44  H    0.156658
    45  H    0.146181
    46  H    0.142619
 Sum of Mulliken charges =  -0.00000

 Dipole moment (field-independent basis, Debye):
    X=              0.0720    Y=              0.6729    Z=              0.0717  Tot=              0.6805
 Quadrupole moment (field-independent basis, Debye-Ang):
   XX=           -130.8919   YY=           -131.2881   ZZ=           -147.3624
   XY=              0.7839   XZ=             -0.7254   YZ=             -2.7708

  Exact polarizability:     398.601     -15.755     270.602      -3.761      -9.943     168.307
 Approx polarizability:     443.098      -9.483     364.342      -4.946     -17.565     241.448

 Summary of Natural Population Analysis:

                                       Natural Population
                Natural  -----------------------------------------------
    Atom  No    Charge         Core      Valence    Rydberg      Total
 -----------------------------------------------------------------------
      C    1   -0.04678      1.99910     4.02826    0.01942     6.04678
      C    2   -0.19784      1.99915     4.18083    0.01787     6.19784
      C    3   -0.20392      1.99923     4.18631    0.01838     6.20392
      C    4   -0.21475      1.99922     4.19715    0.01838     6.21475
      C    5   -0.20342      1.99923     4.18628    0.01791     6.20342
      C    6   -0.19981      1.99914     4.18308    0.01759     6.19981
      H    7    0.21333      0.00000     0.78566    0.00101     0.78667
      H    8    0.21316      0.00000     0.78579    0.00105     0.78684
      H    9    0.21423      0.00000     0.78455    0.00122     0.78577
      H   10    0.21068      0.00000     0.78769    0.00163     0.78932
      H   11    0.21337      0.00000     0.78564    0.00099     0.78663
      C   12   -0.18578      1.99913     4.16972    0.01693     6.18578
      C   13   -0.19206      1.99916     4.17610    0.01680     6.19206
      C   14   -0.04690      1.99911     4.02826    0.01953     6.04690
      C   15   -0.20322      1.99902     4.18810    0.01611     6.20322
      H   16    0.21360      0.00000     0.78518    0.00123     0.78640
      H   17    0.21480      0.00000     0.78408    0.00113     0.78520
      H   18    0.21162      0.00000     0.78561    0.00277     0.78838
      C   19   -0.05363      1.99907     4.03532    0.01925     6.05363
      C   20    0.02513      1.99907     3.95577    0.02002     5.97487
      C   21    0.03090      1.99908     3.94968    0.02033     5.96910
      C   22   -0.05771      1.99904     4.03965    0.01902     6.05771
      C   23   -0.19043      1.99913     4.17417    0.01714     6.19043
      C   24   -0.20933      1.99925     4.19217    0.01792     6.20933
      C   25   -0.20470      1.99925     4.18707    0.01838     6.20470
      C   26   -0.21315      1.99909     4.19633    0.01773     6.21315
      H   27    0.21230      0.00000     0.78641    0.00129     0.78770
      H   28    0.21289      0.00000     0.78612    0.00099     0.78711
      H   29    0.21239      0.00000     0.78662    0.00099     0.78761
      H   30    0.21179      0.00000     0.78686    0.00134     0.78821
      C   31   -0.39878      1.99945     4.38639    0.01293     6.39878
      C   32   -0.37303      1.99937     4.35928    0.01439     6.37303
      C   33   -0.09291      1.99925     4.07337    0.02029     6.09291
      C   34   -0.37304      1.99937     4.35927    0.01440     6.37304
      C   35   -0.39783      1.99945     4.38550    0.01288     6.39783
      C   36   -0.39505      1.99946     4.38267    0.01291     6.39505
      H   37    0.21101      0.00000     0.78784    0.00115     0.78899
      H   38    0.19791      0.00000     0.80086    0.00123     0.80209
      H   39    0.21819      0.00000     0.78069    0.00113     0.78181
      H   40    0.19644      0.00000     0.80176    0.00180     0.80356
      H   41    0.19668      0.00000     0.80151    0.00181     0.80332
      H   42    0.21791      0.00000     0.78096    0.00113     0.78209
      H   43    0.21081      0.00000     0.78804    0.00115     0.78919
      H   44    0.19516      0.00000     0.80360    0.00125     0.80484
      H   45    0.20826      0.00000     0.79069    0.00105     0.79174
      H   46    0.19153      0.00000     0.80691    0.00156     0.80847
 =======================================================================
   * Total *   -0.00000     47.98081   117.57380    0.44538   166.00000

                      1                      2                      3
                      A                      A                      A
 Frequencies --     34.9961                48.3729                63.7621
 Red. masses --      4.6221                 3.8668                 4.4953
 Frc consts  --      0.0033                 0.0053                 0.0108
 IR Inten    --      0.0513                 0.2293                 0.0692

                      4                      5                      6
                      A                      A                      A
 Frequencies --     74.5225               107.9492               112.7917
 Red. masses --      3.9229                 3.3897                 3.2388
 Frc consts  --      0.0128                 0.0233                 0.0243
 IR Inten    --      0.3362                 0.1243                 0.0076

                      7                      8                      9
                      A                      A                      A
 Frequencies --    123.9229               174.2598               185.1842
 Red. masses --      4.7654                 4.2057                 4.1185
 Frc consts  --      0.0431                 0.0752                 0.0832
 IR Inten    --      0.2243                 0.3488                 0.1165

                     10                     11                     12
                      A                      A                      A
 Frequencies --    217.7683               261.9302               273.4083
 Red. masses --      3.6802                 2.0489                 4.8512
 Frc consts  --      0.1028                 0.0828                 0.2137
 IR Inten    --      0.0122                 0.8260                 0.0623

                     13                     14                     15
                      A                      A                      A
 Frequencies --    276.5715               299.0312               346.8580
 Red. masses --      3.7614                 4.1011                 3.7926
 Frc consts  --      0.1695                 0.2161                 0.2688
 IR Inten    --      0.2302                 0.5449                 0.4692

                     16                     17                     18
                      A                      A                      A
 Frequencies --    356.0713               376.6189               403.5493
 Red. masses --      3.3359                 1.7994                 4.1204
 Frc consts  --      0.2492                 0.1504                 0.3953
 IR Inten    --      0.3720                 0.5913                 1.0340

                     19                     20                     21
                      A                      A                      A
 Frequencies --    418.7573               438.4555               462.7177
 Red. masses --      2.9516                 3.0268                 4.1647
 Frc consts  --      0.3049                 0.3428                 0.5254
 IR Inten    --      0.1985                 0.1731                 6.9612

                     22                     23                     24
                      A                      A                      A
 Frequencies --    483.3163               505.1354               509.9177
 Red. masses --      5.1979                 1.7582                 3.1021
 Frc consts  --      0.7154                 0.2643                 0.4752
 IR Inten    --      3.6495                 0.5732                 0.5483

                     25                     26                     27
                      A                      A                      A
 Frequencies --    518.8804               553.2826               570.7599
 Red. masses --      3.5724                 3.7184                 3.7944
 Frc consts  --      0.5667                 0.6707                 0.7283
 IR Inten    --      3.4118                 1.7231                 2.2028

                     28                     29                     30
                      A                      A                      A
 Frequencies --    580.0496               630.7401               633.4555
 Red. masses --      3.5446                 6.5066                 6.6244
 Frc consts  --      0.7027                 1.5251                 1.5661
 IR Inten    --      3.0985                 0.0240                 0.2903

                     31                     32                     33
                      A                      A                      A
 Frequencies --    658.4258               663.9387               707.2187
 Red. masses --      3.9716                 3.8858                 6.1405
 Frc consts  --      1.0144                 1.0092                 1.8095
 IR Inten    --      1.8795                 1.0928                 5.7970

                     34                     35                     36
                      A                      A                      A
 Frequencies --    723.3740               740.0349               767.9451
 Red. masses --      1.7021                 4.8043                 1.8908
 Frc consts  --      0.5248                 1.5502                 0.6570
 IR Inten    --     37.8782                 4.2017                39.1109

                     37                     38                     39
                      A                      A                      A
 Frequencies --    777.9716               789.5867               794.7790
 Red. masses --      2.1029                 1.8900                 1.4722
 Frc consts  --      0.7499                 0.6942                 0.5479
 IR Inten    --     20.0342                47.5635                 3.0692

                     40                     41                     42
                      A                      A                      A
 Frequencies --    803.7793               823.9609               846.9443
 Red. masses --      3.5707                 2.8597                 2.2627
 Frc consts  --      1.3592                 1.1439                 0.9563
 IR Inten    --      0.5985                 1.5159                 1.4144

                     43                     44                     45
                      A                      A                      A
 Frequencies --    858.1810               869.4860               876.3320
 Red. masses --      2.6057                 1.5469                 1.2463
 Frc consts  --      1.1307                 0.6890                 0.5639
 IR Inten    --      2.1435                13.3064                 0.2608

                     46                     47                     48
                      A                      A                      A
 Frequencies --    900.6691               922.4296               928.3247
 Red. masses --      1.5531                 2.2752                 1.7717
 Frc consts  --      0.7423                 1.1406                 0.8996
 IR Inten    --      0.3592                 3.7242                 6.8696

                     49                     50                     51
                      A                      A                      A
 Frequencies --    943.8644               951.8172               955.1702
 Red. masses --      1.5421                 1.5109                 2.6492
 Frc consts  --      0.8094                 0.8065                 1.4241
 IR Inten    --      2.1656                 1.0355                 1.5737

                     52                     53                     54
                      A                      A                      A
 Frequencies --    964.3452               968.8426               982.8164
 Red. masses --      1.4800                 1.4211                 1.3696
 Frc consts  --      0.8109                 0.7859                 0.7795
 IR Inten    --      1.1233                 0.1596                 0.3384

                     55                     56                     57
                      A                      A                      A
 Frequencies --    998.8410              1000.3923              1014.7399
 Red. masses --      1.3754                 1.2900                 1.2944
 Frc consts  --      0.8085                 0.7607                 0.7853
 IR Inten    --      0.2978                 0.0065                 0.1008

                     58                     59                     60
                      A                      A                      A
 Frequencies --   1021.3114              1028.0175              1035.5751
 Red. masses --      5.7198                 4.6876                 4.1568
 Frc consts  --      3.5152                 2.9188                 2.6265
 IR Inten    --      0.9091                 4.0911                 4.3102

                     61                     62                     63
                      A                      A                      A
 Frequencies --   1057.2680              1061.1470              1063.0248
 Red. masses --      2.9805                 1.8815                 1.9243
 Frc consts  --      1.9629                 1.2482                 1.2812
 IR Inten    --      3.8220                 3.5222                 3.2609

                     64                     65                     66
                      A                      A                      A
 Frequencies --   1081.5000              1086.7282              1113.9238
 Red. masses --      1.8461                 1.4516                 1.5216
 Frc consts  --      1.2722                 1.0100                 1.1124
 IR Inten    --      1.4931                 0.0150                 4.2030

                     67                     68                     69
                      A                      A                      A
 Frequencies --   1122.6832              1127.4019              1140.7547
 Red. masses --      2.0995                 1.7030                 1.7303
 Frc consts  --      1.5591                 1.2753                 1.3266
 IR Inten    --      0.4814                 0.0882                 2.1364

                     70                     71                     72
                      A                      A                      A
 Frequencies --   1161.5922              1164.1839              1176.6074
 Red. masses --      1.6317                 1.3944                 1.1596
 Frc consts  --      1.2972                 1.1135                 0.9458
 IR Inten    --      0.4948                 1.2953                 2.1416

                     73                     74                     75
                      A                      A                      A
 Frequencies --   1177.4387              1205.2519              1208.3380
 Red. masses --      1.1448                 2.2319                 1.1479
 Frc consts  --      0.9351                 1.9102                 0.9875
 IR Inten    --      0.2565                 0.0618                 1.0451

                     76                     77                     78
                      A                      A                      A
 Frequencies --   1219.7988              1224.2760              1260.7913
 Red. masses --      1.7426                 2.6888                 2.1611
 Frc consts  --      1.5277                 2.3745                 2.0240
 IR Inten    --      0.6420                 5.2580                 1.7605

                     79                     80                     81
                      A                      A                      A
 Frequencies --   1275.6611              1291.7183              1308.5661
 Red. masses --      1.4651                 2.3131                 3.3974
 Frc consts  --      1.4047                 2.2739                 3.4276
 IR Inten    --      4.5999                 7.1138                 3.0859

                     82                     83                     84
                      A                      A                      A
 Frequencies --   1308.8290              1317.1433              1321.4909
 Red. masses --      1.2068                 2.1105                 2.0339
 Frc consts  --      1.2180                 2.1573                 2.0927
 IR Inten    --      1.2167                 1.6608                 0.5077

                     85                     86                     87
                      A                      A                      A
 Frequencies --   1329.3146              1349.4073              1353.3432
 Red. masses --      1.8650                 2.4210                 1.3420
 Frc consts  --      1.9417                 2.5974                 1.4482
 IR Inten    --      2.7875                 2.2879                 0.0108

                     88                     89                     90
                      A                      A                      A
 Frequencies --   1353.9904              1373.5180              1375.2426
 Red. masses --      1.5794                 1.4302                 3.3126
 Frc consts  --      1.7060                 1.5897                 3.6913
 IR Inten    --      1.0864                 0.0400                 2.2781

                     91                     92                     93
                      A                      A                      A
 Frequencies --   1386.8447              1388.5797              1390.2175
 Red. masses --      1.5476                 1.4969                 1.5561
 Frc consts  --      1.7537                 1.7006                 1.7719
 IR Inten    --      0.7768                 2.8376                 0.7992

                     94                     95                     96
                      A                      A                      A
 Frequencies --   1456.1592              1476.5268              1483.4736
 Red. masses --      3.1270                 1.0866                 1.1236
 Frc consts  --      3.9065                 1.3958                 1.4568
 IR Inten    --     15.4461                 3.1291                 1.8220

                     97                     98                     99
                      A                      A                      A
 Frequencies --   1490.2294              1495.0359              1496.0939
 Red. masses --      2.0339                 1.2421                 1.1069
 Frc consts  --      2.6613                 1.6358                 1.4597
 IR Inten    --      3.4951                 3.9190                 4.2793

                    100                    101                    102
                      A                      A                      A
 Frequencies --   1497.8442              1510.6947              1518.0534
 Red. masses --      2.2411                 1.1494                 2.6566
 Frc consts  --      2.9624                 1.5455                 3.6070
 IR Inten    --     41.5249                 4.4342                27.6269

                    103                    104                    105
                      A                      A                      A
 Frequencies --   1531.2000              1552.0864              1638.5121
 Red. masses --      2.8709                 3.0229                 6.0226
 Frc consts  --      3.9658                 4.2905                 9.5265
 IR Inten    --     14.5528                 3.1404                 2.0855

                    106                    107                    108
                      A                      A                      A
 Frequencies --   1655.0149              1658.0507              1676.4949
 Red. masses --      6.4046                 7.0351                 6.0491
 Frc consts  --     10.3358                11.3951                10.0172
 IR Inten    --      1.9325                 0.1467                11.3141

                    109                    110                    111
                      A                      A                      A
 Frequencies --   1679.7964              1681.9444              3040.9863
 Red. masses --      7.0664                 6.8193                 1.0677
 Frc consts  --     11.7480                11.3662                 5.8174
 IR Inten    --      0.0346                 6.4423                23.7498

                    112                    113                    114
                      A                      A                      A
 Frequencies --   3044.7903              3047.7923              3069.4723
 Red. masses --      1.0640                 1.0645                 1.0623
 Frc consts  --      5.8116                 5.8257                 5.8972
 IR Inten    --      8.4899                26.4331                15.0723

                    115                    116                    117
                      A                      A                      A
 Frequencies --   3073.4198              3099.3184              3100.2236
 Red. masses --      1.0623                 1.0978                 1.0941
 Frc consts  --      5.9122                 6.2130                 6.1959
 IR Inten    --     20.1080                36.2037                37.6924

                    118                    119                    120
                      A                      A                      A
 Frequencies --   3101.1451              3109.7498              3115.7123
 Red. masses --      1.0993                 1.1033                 1.1026
 Frc consts  --      6.2287                 6.2864                 6.3064
 IR Inten    --     10.5873                 8.3522                56.1116

                    121                    122                    123
                      A                      A                      A
 Frequencies --   3192.1137              3197.3199              3199.5677
 Red. masses --      1.0876                 1.0858                 1.0877
 Frc consts  --      6.5292                 6.5401                 6.5605
 IR Inten    --      5.6836                 8.2545                 5.6169

                    124                    125                    126
                      A                      A                      A
 Frequencies --   3201.8114              3202.6780              3210.5914
 Red. masses --      1.0878                 1.0877                 1.0911
 Frc consts  --      6.5704                 6.5732                 6.6264
 IR Inten    --      1.0922                 0.3611                 3.5901

                    127                    128                    129
                      A                      A                      A
 Frequencies --   3213.0196              3216.9833              3218.5510
 Red. masses --      1.0926                 1.0947                 1.0944
 Frc consts  --      6.6459                 6.6748                 6.6798
 IR Inten    --     10.4486                 3.1346                19.1286

                    130                    131                    132
                      A                      A                      A
 Frequencies --   3226.1768              3228.6370              3243.0463
 Red. masses --      1.0973                 1.0985                 1.0890
 Frc consts  --      6.7291                 6.7466                 6.7483
 IR Inten    --     18.4841                12.5417                 5.4419

 - Thermochemistry -
 -------------------
 Temperature   298.150 Kelvin.  Pressure   1.00000 Atm.
 Atom     1 has atomic number  6 and mass  12.00000

 Molecular mass:   310.17215 amu.
 Principal axes and moments of inertia in atomic units:
                           1         2         3
     Eigenvalues --  3998.11114********************
           X            0.99999   0.00501  -0.00016
           Y           -0.00502   0.99998  -0.00318
           Z            0.00014   0.00318   0.99999
 This molecule is an asymmetric top.
 Rotational symmetry number  1.
 Warning -- assumption of classical behavior for rotation
           may cause significant error
 Rotational temperatures (Kelvin)      0.02166     0.00733     0.00584
 Rotational constants (GHZ):           0.45140     0.15279     0.12159
 Zero-point vibrational energy    1034704.3 (Joules/Mol)
                                  247.30026 (Kcal/Mol)
 Warning -- explicit consideration of  28 degrees of freedom as
           vibrations may cause significant error
 Vibrational temperatures:     50.35    69.60    91.74   107.22   155.31
          (Kelvin)            162.28   178.30   250.72   266.44   313.32
                              376.86   393.37   397.92   430.24   499.05
                              512.31   541.87   580.62   602.50   630.84
                              665.75   695.38   726.78   733.66   746.55
                              796.05   821.20   834.56   907.49   911.40
                              947.33   955.26  1017.53  1040.77  1064.75
                             1104.90  1119.33  1136.04  1143.51  1156.46
                             1185.50  1218.56  1234.73  1251.00  1260.85
                             1295.86  1327.17  1335.65  1358.01  1369.45
                             1374.28  1387.48  1393.95  1414.05  1437.11
                             1439.34  1459.98  1469.44  1479.09  1489.96
                             1521.17  1526.75  1529.46  1556.04  1563.56
                             1602.69  1615.29  1622.08  1641.29  1671.27
                             1675.00  1692.88  1694.07  1734.09  1738.53
                             1755.02  1761.46  1814.00  1835.39  1858.49
                             1882.73  1883.11  1895.08  1901.33  1912.59
                             1941.50  1947.16  1948.09  1976.19  1978.67
                             1995.36  1997.86  2000.21  2095.09  2124.39
                             2134.39  2144.11  2151.02  2152.55  2155.06
                             2173.55  2184.14  2203.06  2233.11  2357.45
                             2381.20  2385.57  2412.10  2416.85  2419.94
                             4375.30  4380.77  4385.09  4416.29  4421.97
                             4459.23  4460.53  4461.86  4474.24  4482.82
                             4592.74  4600.23  4603.46  4606.69  4607.94
                             4619.32  4622.82  4628.52  4630.78  4641.75
                             4645.29  4666.02

 Zero-point correction=                           0.394098 (Hartree/Particle)
 Thermal correction to Energy=                    0.412258
 Thermal correction to Enthalpy=                  0.413203
 Thermal correction to Gibbs Free Energy=         0.347911
 Sum of electronic and zero-point Energies=           -927.376569
 Sum of electronic and thermal Energies=              -927.358409
 Sum of electronic and thermal Enthalpies=            -927.357465
 Sum of electronic and thermal Free Energies=         -927.422757

                     E (Thermal)             CV                S
                      KCal/Mol        Cal/Mol-Kelvin    Cal/Mol-Kelvin
 Total                  258.696             76.465            137.419
 Electronic               0.000              0.000              0.000
 Translational            0.889              2.981             43.092
 Rotational               0.889              2.981             34.904
 Vibrational            256.919             70.504             59.423
 Vibration     1          0.594              1.982              5.524
 Vibration     2          0.595              1.978              4.883
 Vibration     3          0.597              1.972              4.337
 Vibration     4          0.599              1.966              4.030
 Vibration     5          0.606              1.943              3.305
 Vibration     6          0.607              1.939              3.220
 Vibration     7          0.610              1.929              3.038
 Vibration     8          0.627              1.874              2.389
 Vibration     9          0.631              1.860              2.276
 Vibration    10          0.646              1.814              1.978
 Vibration    11          0.669              1.742              1.649
 Vibration    12          0.676              1.722              1.575
 Vibration    13          0.678              1.717              1.555
 Vibration    14          0.692              1.676              1.422
 Vibration    15          0.725              1.582              1.180
 Vibration    16          0.732              1.563              1.139
 Vibration    17          0.747              1.520              1.053
 Vibration    18          0.769              1.462              0.950
 Vibration    19          0.782              1.429              0.896
 Vibration    20          0.799              1.386              0.831
 Vibration    21          0.820              1.333              0.758
 Vibration    22          0.839              1.287              0.701
 Vibration    23          0.860              1.239              0.645
 Vibration    24          0.865              1.228              0.634
 Vibration    25          0.874              1.208              0.613
 Vibration    26          0.909              1.133              0.537
 Vibration    27          0.927              1.094              0.503
 Vibration    28          0.937              1.074              0.485

 Optimization completed.
    -- Stationary point found.
 Normal termination of Gaussian 16 at Fri Nov  3 22:36:23 2023.
