 Gaussian 16, Revision C.01,
 Gaussian 16:  ES64L-G16RevC.01  3-Jul-2019

 -----------------------------------------
 # opt freq=noraman m062x def2tzvp pop=nbo
 -----------------------------------------

 ------------
 Structure697
 ------------
 Symbolic Z-matrix:
 Charge =  0 Multiplicity = 1

 SCF Done:  E(RM062X) =  -925.386474687     A.U. after   14 cycles
 SCF Done:  E(RM062X) =  -925.393377698     A.U. after   12 cycles
 SCF Done:  E(RM062X) =  -925.394184624     A.U. after   12 cycles
 SCF Done:  E(RM062X) =  -925.394243359     A.U. after   10 cycles
 SCF Done:  E(RM062X) =  -925.394247268     A.U. after    9 cycles
 SCF Done:  E(RM062X) =  -925.394247610     A.U. after    7 cycles
 Optimization completed.
    -- Stationary point found.
 Normal termination of Gaussian 16 at Tue Nov 14 18:03:05 2023.

 --------------------------------------------------------------------
 #N Geom=AllCheck Guess=TCheck SCRF=Check GenChk RM062X/def2TZVP Freq
 --------------------------------------------------------------------

 Structure from the checkpoint file:  "ph_pyrene_me_1_1_m062x.chk"
 ------------
 Structure697
 ------------
 Charge =  0 Multiplicity = 1

                         Standard orientation:
 ---------------------------------------------------------------------
 Center     Atomic      Atomic             Coordinates (Angstroms)
 Number     Number       Type             X           Y           Z
 ---------------------------------------------------------------------
      1          6           0       -6.561293    0.000000   -0.000000
      2          6           0       -5.862533   -0.971692    0.703105
      3          6           0       -4.476032   -0.971690    0.702115
      4          6           0       -3.762513   -0.000000    0.000000
      5          6           0       -4.476032    0.971690   -0.702115
      6          6           0       -5.862533    0.971693   -0.703105
      7          1           0       -7.643437    0.000000   -0.000000
      8          1           0       -6.399066   -1.728275    1.261102
      9          1           0       -3.936774   -1.718226    1.271990
     10          1           0       -3.936773    1.718226   -1.271990
     11          1           0       -6.399066    1.728275   -1.261102
     12          6           0       -0.178990    1.218873    0.074052
     13          6           0       -1.572121    1.196740    0.071125
     14          6           0       -2.280939   -0.000000    0.000000
     15          6           0       -1.572121   -1.196740   -0.071125
     16          1           0       -2.110662    2.133857    0.152713
     17          1           0       -2.110662   -2.133857   -0.152713
     18          6           0        0.538231   -0.000000    0.000000
     19          6           0       -0.178990   -1.218873   -0.074052
     20          6           0        0.560289   -2.445984   -0.157401
     21          6           0        1.909928   -2.449046   -0.159043
     22          6           0        2.666801   -1.229008   -0.079360
     23          6           0        1.963672   -0.000000    0.000000
     24          1           0        0.007309   -3.375667   -0.218658
     25          1           0        2.441872   -3.389055   -0.221739
     26          6           0        0.560289    2.445984    0.157401
     27          6           0        1.909928    2.449046    0.159043
     28          6           0        2.666801    1.229008    0.079360
     29          1           0        2.441872    3.389055    0.221739
     30          1           0        0.007309    3.375667    0.218658
     31          6           0        4.068867   -1.219401   -0.078624
     32          6           0        4.068866    1.219402    0.078624
     33          6           0        4.730121    0.000000    0.000000
     34          1           0        5.814849    0.000000    0.000000
     35          6           0        4.857204   -2.497212   -0.160644
     36          1           0        5.925616   -2.289390   -0.148573
     37          1           0        4.632826   -3.158016    0.679199
     38          1           0        4.630859   -3.046580   -1.076732
     39          6           0        4.857203    2.497212    0.160643
     40          1           0        5.925616    2.289391    0.148573
     41          1           0        4.632826    3.158016   -0.679199
     42          1           0        4.630858    3.046580    1.076732
 ---------------------------------------------------------------------

 SCF Done:  E(RM062X) =  -925.394247610     A.U. after    1 cycles

 The electronic state is 1-A.
 Alpha  occ. eigenvalues --  -10.55291 -10.55219 -10.55108 -10.55094 -10.55078
 Alpha  occ. eigenvalues --  -10.55077 -10.55031 -10.54923 -10.54655 -10.54648
 Alpha  occ. eigenvalues --  -10.54303 -10.54303 -10.54242 -10.54227 -10.54200
 Alpha  occ. eigenvalues --  -10.54200 -10.54193 -10.54189 -10.54144 -10.54133
 Alpha  occ. eigenvalues --  -10.54074 -10.53630 -10.53431 -10.53431  -1.00418
 Alpha  occ. eigenvalues --   -0.97536  -0.95770  -0.93723  -0.91201  -0.88565
 Alpha  occ. eigenvalues --   -0.86226  -0.84920  -0.84644  -0.83122  -0.81422
 Alpha  occ. eigenvalues --   -0.78853  -0.76758  -0.72387  -0.71179  -0.69956
 Alpha  occ. eigenvalues --   -0.68431  -0.67545  -0.66997  -0.62091  -0.60042
 Alpha  occ. eigenvalues --   -0.59051  -0.58240  -0.57229  -0.56111  -0.53010
 Alpha  occ. eigenvalues --   -0.52983  -0.51988  -0.50997  -0.50620  -0.49773
 Alpha  occ. eigenvalues --   -0.49691  -0.48911  -0.48662  -0.48284  -0.47622
 Alpha  occ. eigenvalues --   -0.46244  -0.45954  -0.45800  -0.45003  -0.44440
 Alpha  occ. eigenvalues --   -0.44233  -0.43512  -0.41925  -0.41632  -0.40773
 Alpha  occ. eigenvalues --   -0.40415  -0.39986  -0.38105  -0.36913  -0.36050
 Alpha  occ. eigenvalues --   -0.32440  -0.31731  -0.31080  -0.30744  -0.26812
 Alpha  occ. eigenvalues --   -0.24107
 Alpha virt. eigenvalues --   -0.03659  -0.01550   0.02010   0.02107   0.03229
 Alpha virt. eigenvalues --    0.04224   0.07050   0.07868   0.08188   0.09226
 Alpha virt. eigenvalues --    0.09226   0.09758   0.09979   0.11420   0.11653

 Mulliken charges:
               1
     1  C   -0.148006
     2  C   -0.152432
     3  C   -0.216872
     4  C    0.107531
     5  C   -0.216872
     6  C   -0.152432
     7  H    0.142548
     8  H    0.143297
     9  H    0.167960
    10  H    0.167960
    11  H    0.143297
    12  C    0.103123
    13  C   -0.264701
    14  C    0.125830
    15  C   -0.264701
    16  H    0.168671
    17  H    0.168671
    18  C    0.039480
    19  C    0.103123
    20  C   -0.232316
    21  C   -0.243786
    22  C    0.063420
    23  C    0.038987
    24  H    0.133029
    25  H    0.157602
    26  C   -0.232316
    27  C   -0.243786
    28  C    0.063420
    29  H    0.157602
    30  H    0.133029
    31  C    0.125796
    32  C    0.125796
    33  C   -0.200330
    34  H    0.128146
    35  C   -0.549146
    36  H    0.140293
    37  H    0.169576
    38  H    0.169392
    39  C   -0.549146
    40  H    0.140293
    41  H    0.169576
    42  H    0.169392
 Sum of Mulliken charges =  -0.00000

 Dipole moment (field-independent basis, Debye):
    X=              0.6964    Y=              0.0000    Z=             -0.0000  Tot=              0.6964
 Quadrupole moment (field-independent basis, Debye-Ang):
   XX=           -119.8974   YY=           -125.6311   ZZ=           -146.5043
   XY=             -0.0000   XZ=             -0.0000   YZ=             -2.4735

  Exact polarizability:     484.312       0.005     280.844      -0.010      -7.261     146.240
 Approx polarizability:     557.790      -0.000     404.101      -0.000     -12.829     219.496

 Summary of Natural Population Analysis:

                                       Natural Population
                Natural  -----------------------------------------------
    Atom  No    Charge         Core      Valence    Rydberg      Total
 -----------------------------------------------------------------------
      C    1   -0.21328      1.99922     4.19570    0.01836     6.21328
      C    2   -0.20401      1.99923     4.18646    0.01833     6.20401
      C    3   -0.19692      1.99914     4.18012    0.01765     6.19692
      C    4   -0.04818      1.99910     4.02918    0.01990     6.04818
      C    5   -0.19692      1.99914     4.18012    0.01765     6.19692
      C    6   -0.20401      1.99923     4.18646    0.01833     6.20401
      H    7    0.21350      0.00000     0.78550    0.00100     0.78650
      H    8    0.21351      0.00000     0.78547    0.00102     0.78649
      H    9    0.21456      0.00000     0.78431    0.00113     0.78544
      H   10    0.21456      0.00000     0.78431    0.00113     0.78544
      H   11    0.21351      0.00000     0.78547    0.00102     0.78649
      C   12   -0.04975      1.99913     4.03351    0.01712     6.04975
      C   13   -0.17329      1.99909     4.15896    0.01524     6.17329
      C   14   -0.04404      1.99911     4.02684    0.01810     6.04404
      C   15   -0.17329      1.99909     4.15896    0.01524     6.17329
      H   16    0.21033      0.00000     0.78780    0.00187     0.78967
      H   17    0.21033      0.00000     0.78780    0.00187     0.78967
      C   18   -0.01904      1.99906     4.00223    0.01775     6.01904
      C   19   -0.04975      1.99913     4.03351    0.01712     6.04975
      C   20   -0.17843      1.99916     4.16180    0.01747     6.17843
      C   21   -0.18367      1.99916     4.16666    0.01785     6.18367
      C   22   -0.06621      1.99905     4.05081    0.01634     6.06621
      C   23    0.00234      1.99909     3.98070    0.01787     5.99766
      H   24    0.21136      0.00000     0.78756    0.00108     0.78864
      H   25    0.21317      0.00000     0.78568    0.00115     0.78683
      C   26   -0.17843      1.99916     4.16180    0.01747     6.17843
      C   27   -0.18367      1.99916     4.16666    0.01785     6.18367
      C   28   -0.06621      1.99905     4.05081    0.01634     6.06621
      H   29    0.21317      0.00000     0.78568    0.00115     0.78683
      H   30    0.21136      0.00000     0.78756    0.00108     0.78864
      C   31    0.01606      1.99911     3.96798    0.01685     5.98394
      C   32    0.01606      1.99911     3.96798    0.01685     5.98394
      C   33   -0.20097      1.99906     4.18520    0.01670     6.20097
      H   34    0.20178      0.00000     0.79667    0.00154     0.79822
      C   35   -0.62572      1.99945     4.61492    0.01135     6.62572
      H   36    0.21601      0.00000     0.78315    0.00085     0.78399
      H   37    0.21849      0.00000     0.78027    0.00124     0.78151
      H   38    0.21848      0.00000     0.78028    0.00124     0.78152
      C   39   -0.62572      1.99945     4.61492    0.01135     6.62572
      H   40    0.21601      0.00000     0.78315    0.00085     0.78399
      H   41    0.21849      0.00000     0.78027    0.00124     0.78151
      H   42    0.21848      0.00000     0.78028    0.00124     0.78152
 =======================================================================
   * Total *    0.00000     47.97969   113.59351    0.42680   162.00000

                      1                      2                      3
                      A                      A                      A
 Frequencies --     37.3437                49.5751                76.1659
 Red. masses --      5.1110                 3.6851                 4.8072
 Frc consts  --      0.0042                 0.0053                 0.0164
 IR Inten    --      0.4114                 0.0006                 0.1993

                      4                      5                      6
                      A                      A                      A
 Frequencies --     90.6131               104.8867               163.0606
 Red. masses --      3.5302                 4.5110                 1.9371
 Frc consts  --      0.0171                 0.0292                 0.0303
 IR Inten    --      0.0017                 0.0115                 4.8469

                      7                      8                      9
                      A                      A                      A
 Frequencies --    184.7151               195.6688               205.3634
 Red. masses --      1.0832                 1.6187                 3.3383
 Frc consts  --      0.0218                 0.0365                 0.0830
 IR Inten    --      0.0025                 0.5823                 0.0408

                     10                     11                     12
                      A                      A                      A
 Frequencies --    213.1850               223.9500               238.9817
 Red. masses --      2.9752                 5.7084                 4.0145
 Frc consts  --      0.0797                 0.1687                 0.1351
 IR Inten    --      0.2046                 0.0180                 0.6214

                     13                     14                     15
                      A                      A                      A
 Frequencies --    262.8665               305.4516               312.3197
 Red. masses --      3.7012                 2.7656                 4.0167
 Frc consts  --      0.1507                 0.1520                 0.2308
 IR Inten    --      1.2353                 0.4404                 0.0965

                     16                     17                     18
                      A                      A                      A
 Frequencies --    329.0440               376.0335               414.7813
 Red. masses --      3.6979                 4.8587                 5.5573
 Frc consts  --      0.2359                 0.4048                 0.5633
 IR Inten    --      0.0815                 0.0356                 0.0741

                     19                     20                     21
                      A                      A                      A
 Frequencies --    418.8232               455.9125               458.8459
 Red. masses --      2.9438                 4.3170                 5.1324
 Frc consts  --      0.3042                 0.5287                 0.6367
 IR Inten    --      0.1846                 0.7523                 0.4380

                     22                     23                     24
                      A                      A                      A
 Frequencies --    473.0832               496.0062               514.9532
 Red. masses --      3.8788                 5.0668                 5.5922
 Frc consts  --      0.5115                 0.7344                 0.8737
 IR Inten    --      0.8308                 1.4845                 0.3634

                     25                     26                     27
                      A                      A                      A
 Frequencies --    525.5282               551.7765               575.3875
 Red. masses --      3.7974                 4.0509                 5.4289
 Frc consts  --      0.6179                 0.7267                 1.0590
 IR Inten    --      0.5001                 3.4090                 1.5315

                     28                     29                     30
                      A                      A                      A
 Frequencies --    578.1419               578.1981               590.1511
 Red. masses --      3.9605                 2.9701                 4.1933
 Frc consts  --      0.7800                 0.5850                 0.8605
 IR Inten    --      0.9781                 0.1164                10.2457

                     31                     32                     33
                      A                      A                      A
 Frequencies --    632.1945               658.8179               663.8561
 Red. masses --      5.9726                 6.8735                 3.0611
 Frc consts  --      1.4064                 1.7578                 0.7948
 IR Inten    --      0.0732                15.2276                 1.5262

                     34                     35                     36
                      A                      A                      A
 Frequencies --    677.3403               716.9547               724.3575
 Red. masses --      4.9793                 4.4358                 1.7413
 Frc consts  --      1.3460                 1.3434                 0.5383
 IR Inten    --      0.0501                 0.0007                37.0723

                     37                     38                     39
                      A                      A                      A
 Frequencies --    740.9577               749.4089               793.2127
 Red. masses --      2.4405                 3.7734                 5.6524
 Frc consts  --      0.7894                 1.2486                 2.0954
 IR Inten    --     11.9932                12.3852                 6.6965

                     40                     41                     42
                      A                      A                      A
 Frequencies --    795.9719               832.6895               840.8351
 Red. masses --      1.8809                 1.4755                 1.8019
 Frc consts  --      0.7021                 0.6028                 0.7506
 IR Inten    --     32.1041                 0.0990                21.4682

                     43                     44                     45
                      A                      A                      A
 Frequencies --    872.3168               876.1989               878.5199
 Red. masses --      3.8732                 5.6639                 1.3499
 Frc consts  --      1.7365                 2.5620                 0.6139
 IR Inten    --      3.1440                 2.5957                 1.1878

                     46                     47                     48
                      A                      A                      A
 Frequencies --    910.7006               918.1270               928.3430
 Red. masses --      1.3182                 5.5755                 1.6526
 Frc consts  --      0.6442                 2.7691                 0.8392
 IR Inten    --     12.5253                 9.0338                35.4651

                     49                     50                     51
                      A                      A                      A
 Frequencies --    932.7986               942.3002               962.8929
 Red. masses --      1.4234                 4.1110                 1.6654
 Frc consts  --      0.7297                 2.1507                 0.9098
 IR Inten    --      0.8923                 0.3837                 1.1600

                     52                     53                     54
                      A                      A                      A
 Frequencies --    994.2224               994.4428              1000.8104
 Red. masses --      1.3009                 1.2959                 1.3734
 Frc consts  --      0.7576                 0.7551                 0.8105
 IR Inten    --      0.0370                 0.5021                 0.6849

                     55                     56                     57
                      A                      A                      A
 Frequencies --   1011.7848              1017.6581              1022.3022
 Red. masses --      1.5693                 1.2925                 5.6027
 Frc consts  --      0.9465                 0.7886                 3.4499
 IR Inten    --      0.6678                 0.0100                 0.6004

                     58                     59                     60
                      A                      A                      A
 Frequencies --   1038.6830              1060.5856              1063.9271
 Red. masses --      1.5701                 1.5400                 2.4333
 Frc consts  --      0.9980                 1.0206                 1.6228
 IR Inten    --      6.9002                 0.0023                 4.8680

                     61                     62                     63
                      A                      A                      A
 Frequencies --   1064.3276              1096.8431              1096.9257
 Red. masses --      1.5810                 2.2223                 5.1464
 Frc consts  --      1.0552                 1.5752                 3.6485
 IR Inten    --      1.9118                 2.3879                 0.0926

                     64                     65                     66
                      A                      A                      A
 Frequencies --   1115.1673              1153.2993              1156.4832
 Red. masses --      1.5306                 2.4859                 2.1890
 Frc consts  --      1.1215                 1.9481                 1.7250
 IR Inten    --      4.3974                 0.3838                 1.2440

                     67                     68                     69
                      A                      A                      A
 Frequencies --   1178.8310              1179.9783              1197.3500
 Red. masses --      1.1568                 1.5217                 1.7093
 Frc consts  --      0.9471                 1.2483                 1.4438
 IR Inten    --      0.0626                 5.3752                 0.4873

                     70                     71                     72
                      A                      A                      A
 Frequencies --   1209.9642              1240.0607              1249.5524
 Red. masses --      1.1312                 1.6900                 1.5139
 Frc consts  --      0.9758                 1.5311                 1.3927
 IR Inten    --      2.9940                 2.4551                 1.3765

                     73                     74                     75
                      A                      A                      A
 Frequencies --   1271.6417              1300.7738              1305.8990
 Red. masses --      1.3544                 2.6594                 3.8360
 Frc consts  --      1.2904                 2.6511                 3.8543
 IR Inten    --      0.1283                 7.9007                 0.0157

                     76                     77                     78
                      A                      A                      A
 Frequencies --   1320.0866              1348.4558              1355.2828
 Red. masses --      2.7596                 3.2282                 1.5208
 Frc consts  --      2.8333                 3.4585                 1.6459
 IR Inten    --      4.5321                 0.1304                 1.6844

                     79                     80                     81
                      A                      A                      A
 Frequencies --   1384.2109              1398.1130              1412.2420
 Red. masses --      2.3445                 4.8781                 1.4574
 Frc consts  --      2.6467                 5.6181                 1.7125
 IR Inten    --      1.8741                 0.1892                 1.1915

                     82                     83                     84
                      A                      A                      A
 Frequencies --   1416.8348              1420.5712              1429.1918
 Red. masses --      1.8458                 1.7401                 3.8661
 Frc consts  --      2.1831                 2.0689                 4.6527
 IR Inten    --      3.8828                 0.1163                 0.0055

                     85                     86                     87
                      A                      A                      A
 Frequencies --   1449.0155              1474.7456              1488.6299
 Red. masses --      3.0109                 2.8791                 2.4240
 Frc consts  --      3.7247                 3.6892                 3.1649
 IR Inten    --      2.2052                 3.0308                 5.1416

                     88                     89                     90
                      A                      A                      A
 Frequencies --   1488.8014              1489.5000              1502.8659
 Red. masses --      1.0427                 1.0439                 1.1019
 Frc consts  --      1.3616                 1.3645                 1.4663
 IR Inten    --      0.0255                16.3335                 0.6781

                     91                     92                     93
                      A                      A                      A
 Frequencies --   1505.7688              1512.8385              1528.1384
 Red. masses --      1.4153                 3.4693                 4.9892
 Frc consts  --      1.8906                 4.6781                 6.8645
 IR Inten    --     53.0880                 0.5767                 0.4627

                     94                     95                     96
                      A                      A                      A
 Frequencies --   1547.4940              1580.6417              1613.2162
 Red. masses --      2.5765                 5.1029                 5.8912
 Frc consts  --      3.6353                 7.5116                 9.0331
 IR Inten    --     16.2507                12.7801                 4.5156

                     97                     98                     99
                      A                      A                      A
 Frequencies --   1648.8415              1662.2669              1667.9221
 Red. masses --      6.0514                 8.0347                 6.2897
 Frc consts  --      9.6931                13.0804                10.3094
 IR Inten    --      4.9090                 4.4735                24.5849

                    100                    101                    102
                      A                      A                      A
 Frequencies --   1678.9700              1686.1871              1709.2356
 Red. masses --      5.9965                 6.7256                 7.3901
 Frc consts  --      9.9594                11.2666                12.7204
 IR Inten    --     10.5786                13.4087                13.7712

                    103                    104                    105
                      A                      A                      A
 Frequencies --   3060.4015              3060.5963              3116.7660
 Red. masses --      1.0377                 1.0378                 1.1006
 Frc consts  --      5.7266                 5.7274                 6.2993
 IR Inten    --     30.6039                27.6371                 0.0100

                    106                    107                    108
                      A                      A                      A
 Frequencies --   3116.8603              3151.9672              3152.1148
 Red. masses --      1.1005                 1.1006                 1.1004
 Frc consts  --      6.2992                 6.4421                 6.4420
 IR Inten    --     17.4094                23.6523                 0.1795

                    109                    110                    111
                      A                      A                      A
 Frequencies --   3186.3347              3194.9069              3194.9781
 Red. masses --      1.0900                 1.0877                 1.0897
 Frc consts  --      6.5201                 6.5417                 6.5539
 IR Inten    --     26.9469                 8.9555                 1.3032

                    112                    113                    114
                      A                      A                      A
 Frequencies --   3197.4855              3198.5343              3199.1037
 Red. masses --      1.0879                 1.0883                 1.0884
 Frc consts  --      6.5532                 6.5598                 6.5632
 IR Inten    --      0.4223                 6.3851                 0.3473

                    115                    116                    117
                      A                      A                      A
 Frequencies --   3201.1852              3210.5511              3215.3903
 Red. masses --      1.0879                 1.0913                 1.0948
 Frc consts  --      6.5682                 6.6278                 6.6691
 IR Inten    --      0.6658                 3.0909                14.2403

                    118                    119                    120
                      A                      A                      A
 Frequencies --   3225.3153              3225.4974              3226.9572
 Red. masses --      1.0942                 1.0940                 1.0984
 Frc consts  --      6.7061                 6.7062                 6.7388
 IR Inten    --     19.9688                 0.0912                14.6073

 - Thermochemistry -
 -------------------
 Temperature   298.150 Kelvin.  Pressure   1.00000 Atm.
 Atom     1 has atomic number  6 and mass  12.00000

 Molecular mass:   306.14085 amu.
 Principal axes and moments of inertia in atomic units:
                           1         2         3
     Eigenvalues --  2775.51175********************
           X            1.00000  -0.00000  -0.00000
           Y            0.00000   1.00000  -0.00302
           Z            0.00000   0.00302   1.00000
 This molecule is an asymmetric top.
 Rotational symmetry number  1.
 Warning -- assumption of classical behavior for rotation
           may cause significant error
 Rotational temperatures (Kelvin)      0.03121     0.00594     0.00507
 Rotational constants (GHZ):           0.65024     0.12377     0.10555
 Zero-point vibrational energy     908720.1 (Joules/Mol)
                                  217.18931 (Kcal/Mol)
 Warning -- explicit consideration of  30 degrees of freedom as
           vibrations may cause significant error
 Vibrational temperatures:     53.73    71.33   109.59   130.37   150.91
          (Kelvin)            234.61   265.76   281.52   295.47   306.73
                              322.21   343.84   378.21   439.48   449.36
                              473.42   541.03   596.78   602.59   655.96
                              660.18   680.66   713.64   740.90   756.12
                              793.88   827.85   831.82   831.90   849.10
                              909.59   947.89   955.14   974.54  1031.54
                             1042.19  1066.07  1078.23  1141.26  1145.23
                             1198.05  1209.77  1255.07  1260.65  1263.99
                             1310.30  1320.98  1335.68  1342.09  1355.76
                             1385.39  1430.46  1430.78  1439.94  1455.73
                             1464.18  1470.86  1494.43  1525.95  1530.75
                             1531.33  1578.11  1578.23  1604.48  1659.34
                             1663.92  1696.07  1697.73  1722.72  1740.87
                             1784.17  1797.83  1829.61  1871.52  1878.90
                             1899.31  1940.13  1949.95  1991.57  2011.57
                             2031.90  2038.51  2043.89  2056.29  2084.81
                             2121.83  2141.81  2142.05  2143.06  2162.29
                             2166.47  2176.64  2198.65  2226.50  2274.19
                             2321.06  2372.32  2391.63  2399.77  2415.66
                             2426.05  2459.21  4403.24  4403.52  4484.33
                             4484.47  4534.98  4535.19  4584.42  4596.76
                             4596.86  4600.47  4601.98  4602.80  4605.79
                             4619.27  4626.23  4640.51  4640.77  4642.87

 Zero-point correction=                           0.346113 (Hartree/Particle)
 Thermal correction to Energy=                    0.364074
 Thermal correction to Enthalpy=                  0.365018
 Thermal correction to Gibbs Free Energy=         0.300676
 Sum of electronic and zero-point Energies=           -925.048134
 Sum of electronic and thermal Energies=              -925.030174
 Sum of electronic and thermal Enthalpies=            -925.029230
 Sum of electronic and thermal Free Energies=         -925.093572

                     E (Thermal)             CV                S
                      KCal/Mol        Cal/Mol-Kelvin    Cal/Mol-Kelvin
 Total                  228.460             74.908            135.420
 Electronic               0.000              0.000              0.000
 Translational            0.889              2.981             43.053
 Rotational               0.889              2.981             34.891
 Vibrational            226.682             68.946             57.475
 Vibration     1          0.594              1.982              5.395
 Vibration     2          0.595              1.978              4.834
 Vibration     3          0.599              1.965              3.987
 Vibration     4          0.602              1.956              3.647
 Vibration     5          0.605              1.945              3.361
 Vibration     6          0.623              1.888              2.514
 Vibration     7          0.631              1.861              2.280
 Vibration     8          0.636              1.846              2.173
 Vibration     9          0.640              1.832              2.085
 Vibration    10          0.644              1.821              2.016
 Vibration    11          0.649              1.805              1.927
 Vibration    12          0.657              1.781              1.810
 Vibration    13          0.670              1.741              1.643
 Vibration    14          0.696              1.663              1.387
 Vibration    15          0.701              1.650              1.350
 Vibration    16          0.712              1.617              1.265
 Vibration    17          0.747              1.521              1.055
 Vibration    18          0.778              1.438              0.910
 Vibration    19          0.782              1.429              0.896
 Vibration    20          0.814              1.348              0.778
 Vibration    21          0.817              1.341              0.769
 Vibration    22          0.830              1.310              0.729
 Vibration    23          0.852              1.259              0.668
 Vibration    24          0.870              1.217              0.622
 Vibration    25          0.880              1.193              0.597
 Vibration    26          0.907              1.136              0.541
 Vibration    27          0.932              1.084              0.494
 Vibration    28          0.935              1.079              0.489
 Vibration    29          0.935              1.078              0.489
 Vibration    30          0.947              1.053              0.467

 Optimization completed.
    -- Stationary point found.
 Normal termination of Gaussian 16 at Tue Nov 14 22:19:26 2023.
