 Gaussian 16, Revision C.01,
 Gaussian 16:  ES64L-G16RevC.01  3-Jul-2019

 -----------------------------------------
 # opt freq=noraman m062x def2tzvp pop=nbo
 -----------------------------------------

 ------------
 Structure697
 ------------
 Symbolic Z-matrix:
 Charge =  0 Multiplicity = 1

 SCF Done:  E(RM062X) =  -463.267200141     A.U. after   16 cycles
 SCF Done:  E(RM062X) =  -463.267924256     A.U. after   17 cycles
 SCF Done:  E(RM062X) =  -463.267946497     A.U. after   14 cycles
 SCF Done:  E(RM062X) =  -463.267947896     A.U. after    7 cycles
 Optimization completed.
    -- Stationary point found.
 Normal termination of Gaussian 16 at Wed Nov  1 01:02:47 2023.

 --------------------------------------------------------------------
 #N Geom=AllCheck Guess=TCheck SCRF=Check GenChk RM062X/def2TZVP Freq
 --------------------------------------------------------------------

 Structure from the checkpoint file:  "phenyl_idp_1_1_m062x.chk"
 ------------
 Structure697
 ------------
 Charge =  0 Multiplicity = 1

                         Standard orientation:
 ---------------------------------------------------------------------
 Center     Atomic      Atomic             Coordinates (Angstroms)
 Number     Number       Type             X           Y           Z
 ---------------------------------------------------------------------
      1          6           0       -0.740690    0.000000    0.000000
      2          6           0       -1.454359   -1.129345    0.401860
      3          6           0       -2.840882   -1.129767    0.402545
      4          6           0       -3.539779    0.000000    0.000000
      5          6           0       -2.840882    1.129767   -0.402545
      6          6           0       -1.454359    1.129345   -0.401861
      7          6           0        0.740690    0.000000    0.000000
      8          6           0        1.454358    1.129346    0.401862
      9          6           0        2.840881    1.129767    0.402544
     10          6           0        3.539779   -0.000000   -0.000000
     11          6           0        2.840881   -1.129767   -0.402544
     12          6           0        1.454358   -1.129346   -0.401862
     13          1           0       -0.915472   -2.006043    0.739421
     14          1           0       -3.377167   -2.012753    0.725757
     15          1           0       -4.621899    0.000000    0.000001
     16          1           0       -3.377167    2.012753   -0.725758
     17          1           0       -0.915472    2.006043   -0.739421
     18          1           0        0.915472    2.006043    0.739422
     19          1           0        3.377167    2.012754    0.725756
     20          1           0        4.621899   -0.000000   -0.000000
     21          1           0        3.377167   -2.012754   -0.725756
     22          1           0        0.915472   -2.006043   -0.739422
 ---------------------------------------------------------------------

 SCF Done:  E(RM062X) =  -463.267947896     A.U. after    1 cycles

 The electronic state is 1-A.
 Alpha  occ. eigenvalues --  -10.55256 -10.55210 -10.54269 -10.54268 -10.54254
 Alpha  occ. eigenvalues --  -10.54254 -10.54169 -10.54169 -10.54159 -10.54159
 Alpha  occ. eigenvalues --  -10.54101 -10.54101  -0.97928  -0.95516  -0.87895
 Alpha  occ. eigenvalues --   -0.85001  -0.84179  -0.81714  -0.71066  -0.70523
 Alpha  occ. eigenvalues --   -0.67543  -0.65988  -0.61207  -0.57533  -0.54356
 Alpha  occ. eigenvalues --   -0.53481  -0.51157  -0.50616  -0.49356  -0.48772
 Alpha  occ. eigenvalues --   -0.48562  -0.45231  -0.43369  -0.42776  -0.41226
 Alpha  occ. eigenvalues --   -0.39442  -0.39427  -0.33615  -0.31118  -0.31098
 Alpha  occ. eigenvalues --   -0.28079
 Alpha virt. eigenvalues --   -0.00512   0.01760   0.02223   0.05309   0.08312
 Alpha virt. eigenvalues --    0.08651   0.09889   0.11136   0.11715   0.13301
 Alpha virt. eigenvalues --    0.13566   0.14405   0.15292   0.15412   0.16932

 Mulliken charges:
               1
     1  C    0.118485
     2  C   -0.215363
     3  C   -0.148523
     4  C   -0.151061
     5  C   -0.148523
     6  C   -0.215363
     7  C    0.118486
     8  C   -0.215364
     9  C   -0.148522
    10  C   -0.151062
    11  C   -0.148522
    12  C   -0.215364
    13  H    0.166092
    14  H    0.142751
    15  H    0.142664
    16  H    0.142751
    17  H    0.166092
    18  H    0.166092
    19  H    0.142751
    20  H    0.142664
    21  H    0.142751
    22  H    0.166092
 Sum of Mulliken charges =  -0.00000

 Dipole moment (field-independent basis, Debye):
    X=             -0.0000    Y=              0.0000    Z=              0.0000  Tot=              0.0000
 Quadrupole moment (field-independent basis, Debye-Ang):
   XX=            -61.8457   YY=            -63.5836   ZZ=            -75.5459
   XY=             -0.0000   XZ=             -0.0000   YZ=             -0.0000

  Exact polarizability:     195.699       0.000     130.546      -0.000      -0.000      78.673
 Approx polarizability:     223.724       0.000     188.120      -0.000       0.000     111.314

 Summary of Natural Population Analysis:

                                       Natural Population
                Natural  -----------------------------------------------
    Atom  No    Charge         Core      Valence    Rydberg      Total
 -----------------------------------------------------------------------
      C    1   -0.05054      1.99910     4.03085    0.02059     6.05054
      C    2   -0.19761      1.99914     4.17996    0.01851     6.19761
      C    3   -0.20446      1.99923     4.18657    0.01867     6.20446
      C    4   -0.21374      1.99922     4.19588    0.01864     6.21374
      C    5   -0.20446      1.99923     4.18657    0.01867     6.20446
      C    6   -0.19761      1.99914     4.17996    0.01851     6.19761
      C    7   -0.05054      1.99910     4.03085    0.02059     6.05054
      C    8   -0.19761      1.99914     4.17996    0.01851     6.19761
      C    9   -0.20446      1.99923     4.18657    0.01867     6.20446
      C   10   -0.21374      1.99922     4.19588    0.01864     6.21374
      C   11   -0.20446      1.99923     4.18657    0.01867     6.20446
      C   12   -0.19761      1.99914     4.17996    0.01851     6.19761
      H   13    0.21412      0.00000     0.78459    0.00129     0.78588
      H   14    0.21339      0.00000     0.78553    0.00107     0.78661
      H   15    0.21341      0.00000     0.78553    0.00105     0.78659
      H   16    0.21339      0.00000     0.78553    0.00107     0.78661
      H   17    0.21412      0.00000     0.78459    0.00129     0.78588
      H   18    0.21412      0.00000     0.78459    0.00129     0.78588
      H   19    0.21339      0.00000     0.78553    0.00107     0.78661
      H   20    0.21341      0.00000     0.78553    0.00105     0.78659
      H   21    0.21339      0.00000     0.78553    0.00107     0.78661
      H   22    0.21412      0.00000     0.78459    0.00129     0.78588
 =======================================================================
   * Total *    0.00000     23.99012    57.77115    0.23873    82.00000

                      1                      2                      3
                      A                      A                      A
 Frequencies --     73.7266                96.4443               130.1906
 Red. masses --      3.7058                 4.3596                 4.0332
 Frc consts  --      0.0119                 0.0239                 0.0403
 IR Inten    --      0.0000                 0.9690                 0.1263

                      4                      5                      6
                      A                      A                      A
 Frequencies --    272.6543               317.2156               371.6262
 Red. masses --      4.1359                 6.3305                 3.8491
 Frc consts  --      0.1812                 0.3753                 0.3132
 IR Inten    --      0.0204                 0.0000                 0.3889

                      7                      8                      9
                      A                      A                      A
 Frequencies --    415.2532               422.7951               503.8053
 Red. masses --      2.9199                 2.9606                 3.6040
 Frc consts  --      0.2966                 0.3118                 0.5390
 IR Inten    --      0.3341                 0.0000                 8.4943

                     10                     11                     12
                      A                      A                      A
 Frequencies --    563.7187               623.7862               627.3163
 Red. masses --      2.8966                 6.8538                 6.4369
 Frc consts  --      0.5423                 1.5713                 1.4925
 IR Inten    --      3.1495                 6.8639                 0.0003

                     13                     14                     15
                      A                      A                      A
 Frequencies --    640.0162               722.8767               725.8174
 Red. masses --      6.2264                 1.6584                 1.8648
 Frc consts  --      1.5027                 0.5106                 0.5788
 IR Inten    --      0.0663                10.1232                61.1731

                     16                     17                     18
                      A                      A                      A
 Frequencies --    762.0039               768.2889               813.7695
 Red. masses --      5.5915                 1.7174                 1.9648
 Frc consts  --      1.9129                 0.5973                 0.7666
 IR Inten    --      0.0000                79.8774                 6.7673

                     19                     20                     21
                      A                      A                      A
 Frequencies --    876.6452               877.4978               943.7633
 Red. masses --      1.2492                 1.2423                 1.3680
 Frc consts  --      0.5656                 0.5636                 0.7179
 IR Inten    --      0.2810                 0.0000                 2.2990

                     22                     23                     24
                      A                      A                      A
 Frequencies --    963.7567               998.4898               999.9429
 Red. masses --      1.5170                 1.3646                 1.3939
 Frc consts  --      0.8302                 0.8015                 0.8212
 IR Inten    --      1.1881                 0.4748                 0.0000

                     25                     26                     27
                      A                      A                      A
 Frequencies --   1016.5811              1017.1625              1018.3118
 Red. masses --      1.2856                 1.3007                 6.4155
 Frc consts  --      0.7828                 0.7929                 3.9196
 IR Inten    --      0.0992                 0.0819                 1.6915

                     28                     29                     30
                      A                      A                      A
 Frequencies --   1024.6128              1038.6276              1068.2373
 Red. masses --      5.2782                 6.6927                 2.1569
 Frc consts  --      3.2648                 4.2537                 1.4502
 IR Inten    --      0.0000                 5.2514                 0.0000

                     31                     32                     33
                      A                      A                      A
 Frequencies --   1079.2693              1114.5484              1115.4382
 Red. masses --      1.6788                 1.4493                 1.6080
 Frc consts  --      1.1522                 1.0607                 1.1788
 IR Inten    --      3.1936                 0.7715                 8.0050

                     34                     35                     36
                      A                      A                      A
 Frequencies --   1178.5186              1178.6639              1204.2479
 Red. masses --      1.1498                 1.1496                 1.1157
 Frc consts  --      0.9409                 0.9410                 0.9533
 IR Inten    --      0.0036                 0.0185                 0.5199

                     37                     38                     39
                      A                      A                      A
 Frequencies --   1213.7623              1295.7145              1317.5433
 Red. masses --      1.1223                 3.1009                 5.8387
 Frc consts  --      0.9741                 3.0673                 5.9716
 IR Inten    --      0.0000                 0.8976                 0.0771

                     40                     41                     42
                      A                      A                      A
 Frequencies --   1321.9266              1355.9804              1358.2066
 Red. masses --      3.1274                 1.3151                 1.6033
 Frc consts  --      3.2199                 1.4246                 1.7426
 IR Inten    --      0.0000                 0.0626                 1.3329

                     43                     44                     45
                      A                      A                      A
 Frequencies --   1475.5904              1505.1260              1529.1623
 Red. masses --      2.1823                 2.4466                 2.1671
 Frc consts  --      2.7997                 3.2655                 2.9856
 IR Inten    --      9.2992                 1.4182                32.5997

                     46                     47                     48
                      A                      A                      A
 Frequencies --   1558.5379              1643.3545              1660.8131
 Red. masses --      2.7213                 5.4267                 6.4478
 Frc consts  --      3.8945                 8.6348                10.4786
 IR Inten    --      0.0000                 3.6872                 0.1837

                     49                     50                     51
                      A                      A                      A
 Frequencies --   1677.9430              1679.9402              3197.8836
 Red. masses --      6.0228                 6.0220                 1.0855
 Frc consts  --      9.9908                10.0134                 6.5403
 IR Inten    --     13.6941                 0.0000                 8.1355

                     52                     53                     54
                      A                      A                      A
 Frequencies --   3199.5080              3201.4477              3205.0863
 Red. masses --      1.0852                 1.0880                 1.0875
 Frc consts  --      6.5450                 6.5699                 6.5822
 IR Inten    --      0.0000                 0.0787                 0.5832

                     55                     56                     57
                      A                      A                      A
 Frequencies --   3211.0717              3214.1739              3217.8645
 Red. masses --      1.0911                 1.0913                 1.0950
 Frc consts  --      6.6287                 6.6428                 6.6803
 IR Inten    --      7.6066                 0.0000                 4.1149

                     58                     59                     60
                      A                      A                      A
 Frequencies --   3219.3426              3228.4603              3229.0365
 Red. masses --      1.0946                 1.0985                 1.0986
 Frc consts  --      6.6841                 6.7462                 6.7487
 IR Inten    --     25.9611                21.1227                 0.0001

 - Thermochemistry -
 -------------------
 Temperature   298.150 Kelvin.  Pressure   1.00000 Atm.
 Atom     1 has atomic number  6 and mass  12.00000

 Molecular mass:   154.07825 amu.
 Principal axes and moments of inertia in atomic units:
                           1         2         3
     Eigenvalues --   624.570713267.797633750.54611
           X            1.00000  -0.00000  -0.00000
           Y            0.00000   1.00000  -0.00000
           Z            0.00000   0.00000   1.00000
 This molecule is an asymmetric top.
 Rotational symmetry number  1.
 Warning -- assumption of classical behavior for rotation
           may cause significant error
 Rotational temperatures (Kelvin)      0.13868     0.02651     0.02309
 Rotational constants (GHZ):           2.88957     0.55228     0.48119
 Zero-point vibrational energy     480199.6 (Joules/Mol)
                                  114.77045 (Kcal/Mol)
 Warning -- explicit consideration of  10 degrees of freedom as
           vibrations may cause significant error
 Vibrational temperatures:    106.08   138.76   187.32   392.29   456.40
          (Kelvin)            534.69   597.46   608.31   724.86   811.07
                              897.49   902.57   920.84  1040.06  1044.29
                             1096.35  1105.40  1170.83  1261.30  1262.52
                             1357.86  1386.63  1436.60  1438.69  1462.63
                             1463.47  1465.12  1474.19  1494.35  1536.96
                             1552.83  1603.59  1604.87  1695.63  1695.83
                             1732.64  1746.33  1864.24  1895.65  1901.96
                             1950.95  1954.16  2123.05  2165.54  2200.12
                             2242.39  2364.42  2389.54  2414.19  2417.06
                             4601.04  4603.38  4606.17  4611.40  4620.02
                             4624.48  4629.79  4631.92  4645.03  4645.86

 Zero-point correction=                           0.182898 (Hartree/Particle)
 Thermal correction to Energy=                    0.191703
 Thermal correction to Enthalpy=                  0.192647
 Thermal correction to Gibbs Free Energy=         0.148429
 Sum of electronic and zero-point Energies=           -463.085050
 Sum of electronic and thermal Energies=              -463.076245
 Sum of electronic and thermal Enthalpies=            -463.075300
 Sum of electronic and thermal Free Energies=         -463.119518

                     E (Thermal)             CV                S
                      KCal/Mol        Cal/Mol-Kelvin    Cal/Mol-Kelvin
 Total                  120.296             35.973             93.065
 Electronic               0.000              0.000              0.000
 Translational            0.889              2.981             41.007
 Rotational               0.889              2.981             30.416
 Vibrational            118.518             30.011             21.642
 Vibration     1          0.599              1.966              4.051
 Vibration     2          0.603              1.952              3.525
 Vibration     3          0.612              1.923              2.943
 Vibration     4          0.676              1.724              1.579
 Vibration     5          0.704              1.641              1.324
 Vibration     6          0.743              1.530              1.073
 Vibration     7          0.779              1.437              0.908
 Vibration     8          0.785              1.421              0.883
 Vibration     9          0.859              1.242              0.649
 Vibration    10          0.919              1.110              0.516

 Optimization completed.
    -- Stationary point found.
 Normal termination of Gaussian 16 at Wed Nov  1 01:26:21 2023.
